[Molden Format]
made by pyscf v[1.6.1-1]
[Atoms] (AU)
C   1   6    -2.78326422530441     3.81804045659374    -0.38125224563100
H   2   1    -6.35505447060607     2.70735392688063    -1.95461931968263
H   3   1    -6.52065117090171     5.47100279501205    -0.10850807407253
C   4   6    -6.53253754822522     1.99984046584347     2.01490158305625
H   5   1    -2.27974669941405     4.48396104562922    -2.27693100748844
H   6   1    -1.90282192660830     1.95681140198712    -0.14511206910535
[GTO]
1 0
 s    8 1.00
                  6665  0.00069158396281299
                  1000  0.0053257961529341
                   228   0.027060721042034
                 64.71    0.10165684614077
                 21.06     0.2745748236174
                 7.495    0.44829431892377
                 2.797    0.28490261071525
                0.5215   0.015194859206082
 s    8 1.00
                  6665  -0.00029326965268655
                  1000  -0.0023180354739745
                   228  -0.011499786038565
                 64.71  -0.046826727009787
                 21.06   -0.12846616875047
                 7.495   -0.30126627246289
                 2.797   -0.25563070233011
                0.5215      1.093793361012
 s    1 1.00
                0.1596                   1
 p    3 1.00
                 9.439   0.056979251590039
                 2.002    0.31320721150073
                0.5456    0.76037674173753
 p    1 1.00
                0.1517                   1
 d    1 1.00
                  0.55                   1

2 0
 s    3 1.00
                 13.01   0.033498726389998
                 1.962    0.23480080117413
                0.4446     0.8136829578829
 s    1 1.00
                 0.122                   1
 p    1 1.00
                 0.727                   1

3 0
 s    3 1.00
                 13.01   0.033498726389998
                 1.962    0.23480080117413
                0.4446     0.8136829578829
 s    1 1.00
                 0.122                   1
 p    1 1.00
                 0.727                   1

4 0
 s    8 1.00
                  6665  0.00069158396281299
                  1000  0.0053257961529341
                   228   0.027060721042034
                 64.71    0.10165684614077
                 21.06     0.2745748236174
                 7.495    0.44829431892377
                 2.797    0.28490261071525
                0.5215   0.015194859206082
 s    8 1.00
                  6665  -0.00029326965268655
                  1000  -0.0023180354739745
                   228  -0.011499786038565
                 64.71  -0.046826727009787
                 21.06   -0.12846616875047
                 7.495   -0.30126627246289
                 2.797   -0.25563070233011
                0.5215      1.093793361012
 s    1 1.00
                0.1596                   1
 p    3 1.00
                 9.439   0.056979251590039
                 2.002    0.31320721150073
                0.5456    0.76037674173753
 p    1 1.00
                0.1517                   1
 d    1 1.00
                  0.55                   1

5 0
 s    3 1.00
                 13.01   0.033498726389998
                 1.962    0.23480080117413
                0.4446     0.8136829578829
 s    1 1.00
                 0.122                   1
 p    1 1.00
                 0.727                   1

6 0
 s    3 1.00
                 13.01   0.033498726389998
                 1.962    0.23480080117413
                0.4446     0.8136829578829
 s    1 1.00
                 0.122                   1
 p    1 1.00
                 0.727                   1

[5d]
[9g]


[MO]
 Sym= A
 Ene=               0
 Spin= Alpha
 Occup=    1.00000
   1       1.0016319450607
   2    0.0027915110546518
   3    -0.0059000758921504
   4    -0.00041237792574907
   5    -0.0018092585987457
   6    -0.0021549530111436
   7    0.00073436880603573
   8    0.0011266753786252
   9    0.00093127743343389
  10    0.00040506817887663
  11    -0.00015435404768632
  12    -0.0001821994485098
  13    -0.0006567130373881
  14    -0.00039156039417702
  15    0.00016459147240734
  16    0.00053606009723615
  17     0.000367202932305
  18    8.0860064774613e-05
  19    9.8584491381791e-05
  20    0.0001522158374019
  21    6.1188934016728e-05
  22     0.000217674199426
  23    -6.2347798287196e-05
  24    -2.7866767743414e-05
  25    0.0099967291037568
  26    -0.00014575071630122
  27    0.00038020648983531
  28    3.9069444982238e-05
  29    1.244189967605e-05
  30    -3.0673089268478e-05
  31    0.00038138522298341
  32    0.00014007079314484
  33    -0.00018294947042535
  34    -2.0721561696403e-05
  35    -0.00017855627609789
  36    -6.1812814144248e-05
  37    8.5421913427099e-05
  38    9.7906830560094e-05
  39    -0.00060179137831833
  40    0.0011616566694774
  41    0.00020490901519408
  42    0.00029000139557945
  43    -0.0007492327265204
  44    -0.00048508097360353
  45    0.0012927800183694
  46    0.00034490496992573
  47    -0.00069240825590133
  48    0.00012198757017452
 Sym= A
 Ene=               1
 Spin= Alpha
 Occup=    1.00000
   1    -0.010188087660056
   2    -0.0001726843971908
   3    0.00033360348511946
   4    -4.9050588639504e-05
   5    5.8210415373972e-05
   6    -4.2341171148196e-05
   7    -0.00041193302346102
   8    -0.00044408157413357
   9    0.00066512784999982
  10    -9.2352698074628e-05
  11    -0.00014260087802061
  12    -5.8032421464173e-05
  13    6.2531918174102e-05
  14    0.00011124329905794
  15    0.00013694132484308
  16    0.00042044556927974
  17    -4.9471878500903e-05
  18    -0.00010448159207724
  19    0.00026459995260368
  20    9.8966628284017e-05
  21    0.00042795116443062
  22    -4.1886007306605e-05
  23    -0.00021788872998741
  24    0.00019437604927935
  25       1.0007107459573
  26    0.00020303886989392
  27    -0.0040246531846918
  28    0.00018726198666709
  29    0.00055963748972907
  30    -0.00073911097662706
  31    -0.00053449764202789
  32    -0.00072940369794121
  33    0.00084913785038621
  34    -0.00019319707678048
  35    0.00015561503180242
  36    0.00031306070468466
  37    0.00030933389377177
  38    -5.2893825035473e-05
  39    0.00014732585279077
  40    0.00024216821231791
  41    -6.0015128735591e-06
  42    1.0887658075254e-05
  43    9.0599884448756e-08
  44    -0.00015592947109355
  45    8.9613523758768e-05
  46    -2.4196812432201e-05
  47    5.2434416918026e-05
  48    -4.4617427693322e-05
 Sym= A
 Ene=               2
 Spin= Alpha
 Occup=    1.00000
   1    -0.020660250704106
   2      0.35904835667104
   3      0.27163585553281
   4     0.058664490816834
   5    -0.049894174177292
   6    -0.078445344631057
   7     0.012110914222755
   8    -0.00040019758537262
   9    -0.0089008758705106
  10    0.0033348248805765
  11    -0.0018373357356342
  12    0.0019400401856168
  13    -0.0036300197813423
  14    -0.0031396378613721
  15     0.021035534328999
  16     0.010241500557419
  17     0.002665135270827
  18    0.00080113091288687
  19    0.00099185182475535
  20     0.021921541638093
  21     0.014757355788703
  22    0.00033580865896428
  23    -0.00047343729746921
  24    -0.0002001551277734
  25    -0.001597712223504
  26     0.040046293474452
  27     0.042384414187151
  28     0.018880901143222
  29    0.0027967488937331
  30    -0.0037426847537263
  31    0.0098243175514981
  32    0.0011421084029449
  33    0.0008638146996218
  34    -8.5000695725227e-05
  35    -0.0015714778438009
  36    -0.00036614118779567
  37    0.0010461600300216
  38    0.00027792910804449
  39      0.24777620185307
  40     0.079564913306286
  41    -0.004543290880733
  42    -0.012909864154654
  43     0.024061244759875
  44      0.23614342826698
  45     0.072208350212396
  46    -0.0082754340582064
  47     0.024450527521375
  48    -0.0084319895721501
 Sym= A
 Ene=               3
 Spin= Alpha
 Occup=    1.00000
   1    0.00050222171026864
   2    -0.035713304149337
   3      -0.0184983625569
   4    -0.050259886158417
   5    -0.017203404306022
   6     0.057484902001396
   7    -0.035251488653309
   8    -0.013131131576793
   9     0.027609144773022
  10    -0.007051482069791
  11    0.00057232896238202
  12    -0.00058314007711298
  13    0.0022440917387692
  14    0.0037936111348145
  15     0.050284027354413
  16     0.040929912312571
  17    -5.8567920166051e-05
  18    -0.0012265103817273
  19    0.0038547340528298
  20     0.056693449644852
  21       0.0612559140447
  22    -0.00066141270589631
  23    -0.0022723315992601
  24    0.0015727547103565
  25    -0.019924617309952
  26      0.41781777451655
  27      0.57631259163563
  28    -0.0022446805943623
  29    -0.017775468418171
  30    0.0077465914601938
  31    -0.014834290421533
  32     -0.03698608469972
  33     0.025211711342913
  34    -0.0001548059786751
  35    -0.00092323892792524
  36    0.0013502660320113
  37    0.0031746760436496
  38    -0.00025738596527203
  39    -0.080559339538648
  40    -0.041145255109401
  41    -0.00020231216268265
  42    0.0023106081944669
  43    -0.0052042867861694
  44    -0.018024292022862
  45     0.006893098626502
  46    -0.001731814761187
  47    -0.0023812466894254
  48    0.0022695271348985
 Sym= A
 Ene=               4
 Spin= Alpha
 Occup=    1.00000
   1    -0.00049300513807143
   2    0.0099125934517106
   3     0.018460812482146
   4     0.067761947323977
   5     -0.30411913035107
   6      0.23821673489958
   7     0.035023499883635
   8    -0.086380234819783
   9     0.059394007017116
  10    -0.030987260776075
  11    0.0047890630276344
  12    0.0095396148608536
  13    -0.014394682994999
  14    -0.015413589196009
  15    -0.023160626823743
  16    -0.015027274644943
  17    -0.00089489159298109
  18    -0.0018008188274417
  19    -0.00025692401943073
  20    -0.039467599763412
  21    -0.048675262277836
  22    -0.00047313660283119
  23     0.001143777686175
  24    0.00055685272265065
  25    0.0013868586038845
  26    -0.044055141776511
  27    -0.063704497522128
  28     0.030503167581867
  29    -0.0067543265126445
  30    -0.0038312573250329
  31     0.023472631234192
  32    0.00082313663073129
  33    -0.0098560536098784
  34    -0.00045767234748742
  35    -0.0018405051981709
  36    -0.00011784144474725
  37    0.0020297335257671
  38    0.00066599028769422
  39     -0.30859208101858
  40     -0.24996245629549
  41    0.0055750612391396
  42    -0.0020939359546736
  43    -0.013989705573417
  44      0.33227906727684
  45      0.23842839794551
  46    -0.0047976481880431
  47     0.015625485026046
  48    0.0020548625839829
 Sym= A
 Ene=               5
 Spin= Alpha
 Occup=    1.00000
   1    -0.008525154229113
   2     0.094267303966699
   3      0.28407455915684
   4     -0.14468247340708
   5      0.12945669613417
   6      0.23232813865494
   7     -0.07372689598741
   8      0.11814536113905
   9      0.14758140496131
  10    -0.015888932342838
  11     0.012585001915516
  12    -0.0066996229569605
  13     0.011097481036888
  14     0.006073514637719
  15      0.10492220793144
  16     0.089499876958748
  17    0.0042745928079613
  18    0.0072993852838396
  19    0.0028875432099176
  20       0.2249709111222
  21      0.34669446906519
  22    0.0041077275043834
  23    -0.0031166252770182
  24    -0.0036579645825134
  25    0.0053814270420167
  26     -0.12108596583948
  27     -0.23859425220408
  28      0.08774310755054
  29     0.091100529388441
  30    -0.046387562052634
  31     0.095569204552806
  32      0.08196277533671
  33    -0.037507215843064
  34    -0.00013625365059801
  35    -0.0032877671682814
  36    -0.0053511691433218
  37    -0.0016785711709316
  38    0.0011178010971418
  39     -0.15601808938067
  40     -0.15640072594209
  41    -0.0055522633799655
  42    0.0094634671300661
  43    -0.0018541850417034
  44    -0.075816099331327
  45    -0.073734231884452
  46    -0.0036427895676922
  47    -0.0030663443835549
  48     0.010430745482374
 Sym= A
 Ene=               6
 Spin= Alpha
 Occup=    1.00000
   1    -0.010391549083916
   2      0.14394395710072
   3      0.43110110753359
   4     0.055170972664272
   5      0.27400145472877
   6      0.26399879021724
   7       0.1040468455296
   8      0.28070417703948
   9      0.24587983137609
  10    -0.0055904803140784
  11    0.00079628133498828
  12    -0.018641632246483
  13    0.0071260253294561
  14    0.0090214697525932
  15     -0.13251532916392
  16      -0.1243086638974
  17    -0.00041848959335812
  18    -0.0037285316707246
  19    0.00091798732085115
  20     -0.17457523295474
  21     -0.32917286841486
  22     0.004479914475861
  23    0.0013453817351813
  24    0.0031133248643472
  25    -0.0066120557615489
  26     0.048949462160261
  27      0.14743947932271
  28     0.014972669479318
  29    -0.074399506087365
  30     0.025468592952206
  31     0.022129046607008
  32    -0.075802046258687
  33    -0.0052669197673926
  34    -0.0021660669913011
  35    -0.0012718612510591
  36    0.0015890051391692
  37    0.0040805686397928
  38     0.003973954691819
  39    -0.051281251761336
  40     -0.11039455456045
  41    0.0030543102948998
  42      0.01301747848272
  43    0.0053510255169472
  44     -0.10515661130409
  45     -0.10676185174948
  46    0.0014102423327661
  47    0.0025547120801992
  48     0.012991514366926
 Sym= A
 Ene=               7
 Spin= Alpha
 Occup=    1.00000
   1    -0.0027691928397866
   2    -0.018074551974591
   3    -0.035753631794718
   4     -0.15897050674412
   5    -0.035591976486693
   6    -0.071135309158747
   7     -0.22122036995909
   8    -0.050286312601945
   9    -0.072486771640141
  10    0.0082610652269043
  11    0.0005730910137272
  12    0.00069754839540243
  13    0.0022052269130173
  14     0.016773419024189
  15     0.033505915618261
  16     0.038609538089904
  17    0.0076361817294983
  18    -0.0022973490719998
  19    0.00010283172083377
  20    -0.097788862160766
  21     -0.26638448892351
  22    0.0041369756108135
  23    0.00070768410610398
  24    -0.0014964142375808
  25    0.0015788628371215
  26     0.013131548623091
  27      0.01641294642768
  28      0.45136004202945
  29    -0.069315084097427
  30    -0.016546310310636
  31      0.50522236482695
  32    -0.081044948088271
  33    -0.032430495231588
  34    0.0028558547807629
  35    -0.0021767450439671
  36    0.00010292812571485
  37    0.0031520268576599
  38    -0.0013852695526264
  39     0.032101248715587
  40     0.058049802739557
  41    -0.0036409481351128
  42    -0.0027934735610336
  43    -0.0031579688469433
  44    -0.067289011635136
  45    -0.021096161207263
  46    -0.009267153142048
  47    -0.0035655281197469
  48    -0.00011029298871036
 Sym= A
 Ene=               8
 Spin= Alpha
 Occup=    1.00000
   1    0.0039064871626169
   2     0.011770292029747
   3     0.028043645283287
   4     0.075475107660682
   5     0.058726159822865
   6     0.069545012660775
   7      0.14595984292671
   8       0.1140412778176
   9     0.092896213919509
  10    -0.0024178395405808
  11    0.0033655380927943
  12    -0.0017803645132552
  13    0.0011681209774979
  14    0.0012454363049981
  15      0.48480767131775
  16      0.71902130657397
  17    -0.007942269179789
  18    -0.019228630979012
  19    -0.023905807771408
  20     -0.18216129472039
  21     -0.44540553463624
  22    0.00050003414495272
  23     0.001020585671656
  24    0.0028532365641023
  25    0.0091436967457699
  26    -0.011792175040036
  27    -0.084907916236683
  28    -0.014210193652661
  29      0.12896240111678
  30      0.19948106316626
  31     -0.05828607405898
  32       0.1129884504797
  33      0.20548542417511
  34    0.0034149480041271
  35     0.005341033600812
  36    0.0093686201942115
  37    -0.0010399817780561
  38    0.0015892522071362
  39    -0.030861298689719
  40    -0.062622033499752
  41    0.0020792976185115
  42    0.0022100538443401
  43     0.000216884977388
  44    -0.012905413951588
  45    -0.018601370634691
  46    0.0029618778061582
  47    0.0012016085982355
  48    0.0026623657669659
 Sym= A
 Ene=               9
 Spin= Alpha
 Occup=    0.00000
   1    0.0050910063154666
   2    -0.016560438488236
   3    -0.085124090638013
   4     0.040403507585655
   5    -0.019669368074859
   6    -0.029668911812648
   7     0.043505377957591
   8    -0.030801664444305
   9    -0.035149333276324
  10    0.0033256706155666
  11    -0.0059165190125698
  12    0.00018394475194803
  13    -0.0033097526233335
  14    -0.0070460863027479
  15    -0.055970640524798
  16     -0.17530131861195
  17    -0.0032637724659556
  18    -0.0016460911250006
  19    -0.0061112990387193
  20     0.029121826795332
  21      0.13007525390738
  22    -0.00069944818667546
  23    0.0017417247472735
  24    0.0044421226756249
  25    0.0047513903996446
  26     0.042106956906447
  27     0.037226378466737
  28      0.15977036725067
  29      0.32531954804647
  30       0.4098346372046
  31      0.12733837078248
  32      0.31412653967555
  33        0.389089529638
  34    7.8194039521582e-05
  35    0.0040480076520714
  36    0.0035646456205147
  37    -0.0027222734871143
  38    -0.003980564945501
  39     0.025351534258547
  40     0.035852520501129
  41    0.0017469917019355
  42    -0.00099535610835298
  43    -4.8563858326611e-05
  44     0.023259944420743
  45     0.018013738896608
  46      0.00283770030466
  47    0.00012088908290243
  48    -0.00079439777932791
 Sym= A
 Ene=              10
 Spin= Alpha
 Occup=    0.00000
   1     0.058913588205559
   2    -0.085509710663233
   3      -1.1975611587424
   4      0.24297603947663
   5       0.1003662117776
   6     0.079468356576462
   7      0.32915480591395
   8      0.25059283912555
   9      0.30952869858749
  10    -0.012593423939981
  11    -0.0068654693689199
  12    0.0013686542659248
  13     0.015759376611943
  14    0.0013977644289712
  15     0.014519121921945
  16      0.15735055032936
  17    -0.0049238207733591
  18    -0.0017983464384987
  19    -0.0032280641377959
  20     0.091975101060047
  21      0.38518074551221
  22    -0.0053358027564613
  23     0.007220936696912
  24    -0.0027572006413012
  25    0.0056512092977037
  26    0.0080902413232248
  27    -0.054526475907603
  28       0.1805221257623
  29     -0.11494691712619
  30    -0.015467161143831
  31      0.23502384602468
  32     -0.20782236567577
  33    0.0080719488063772
  34    -0.0010143200313598
  35    0.0098494924863885
  36    0.00083708651385352
  37    -0.007075447651821
  38    -0.0060851569989216
  39     0.016635562460308
  40      0.74130524758802
  41    0.0073277583489777
  42    -0.0036424323201224
  43     0.017510545547237
  44     0.012784538481358
  45      0.63440501861919
  46     0.004610874613264
  47     0.016091724556983
  48    -0.0026718313972565
 Sym= A
 Ene=              11
 Spin= Alpha
 Occup=    0.00000
   1     0.011399395866891
   2    -0.046444904880528
   3     -0.33017845011454
   4     0.088536964213072
   5    -0.0093738282135091
   6     0.043630844946592
   7       0.1625394588641
   8      -0.0954053768724
   9      0.19627525107729
  10    -0.010906828468839
  11    -0.0087652501780147
  12    0.0018973964665318
  13    0.0070903070243536
  14    -0.00027331671274514
  15    0.0044184244005589
  16     -0.13769564432721
  17    -0.0032757487763427
  18    -0.0024643444669895
  19    0.0096642262960755
  20    -0.051712263738412
  21     -0.35813699290473
  22    -0.0011612115771189
  23    -0.0098304627072354
  24    0.0073016146908123
  25    0.0085590277611848
  26       0.1117983010005
  27      0.15420215670595
  28     0.057528837643899
  29      0.28662793467721
  30     -0.25742789422025
  31     0.085091416017398
  32      0.56366991558305
  33     -0.52912330874396
  34    0.0018087977819816
  35    0.0027124860742058
  36    0.0060533623558485
  37    0.0028394362195206
  38    -0.0026282498891055
  39     0.034121519982213
  40      0.54887297083186
  41    0.0088254117661384
  42    -0.0033051362651196
  43    0.0092373349376513
  44    -0.022147414404574
  45      -0.1519955046192
  46    0.0047207260545103
  47    -0.0029406696989749
  48    0.00081718851817816
 Sym= A
 Ene=              12
 Spin= Alpha
 Occup=    0.00000
   1    -0.082077303893913
   2    -0.074154132553438
   3       1.5881771906136
   4      0.30229598976626
   5    -0.013796696900413
   6     -0.16934702992945
   7      0.77666442367644
   8     -0.14183181095091
   9     -0.64471906866598
  10      0.02210833510625
  11    -0.035475186206242
  12    -0.020455810281322
  13    -0.0059535849179363
  14    -0.021147281142663
  15     0.054597174668812
  16     0.083125810637851
  17    -0.011054234384851
  18    -0.0018621655047371
  19    -0.00044665821192168
  20     0.063075047628602
  21      0.31190911874997
  22    -0.0040532527755025
  23    -0.00054542622346248
  24    -0.0014288103359682
  25    -0.005286750801011
  26     0.033765162106283
  27      0.12664153384113
  28      0.15733694335445
  29     -0.02950747150301
  30     -0.03537084632874
  31      0.31162522655616
  32    -0.014713081674702
  33     -0.11580915174813
  34    0.0033862494228867
  35     0.004267952728261
  36    -0.0018085078796072
  37    -0.004104682735245
  38    -0.0023385991393815
  39     0.065579653955094
  40      -1.5947011141768
  41     0.019585708494019
  42     0.017723008893528
  43    -0.033395601131991
  44     0.000384213980181
  45      -1.0152610652008
  46     0.015078972180057
  47    -0.019747245574672
  48    0.0080205915270603
 Sym= A
 Ene=              13
 Spin= Alpha
 Occup=    0.00000
   1      0.01386944935009
   2    -0.012109922780902
   3     -0.33937707596948
   4     -0.06111834012032
   5      0.24414523484464
   6     -0.17507198841344
   7     -0.23479362023416
   8        1.129536604622
   9     -0.80702706603365
  10     0.062338497476893
  11    -0.018559157590519
  12    -0.015323355826696
  13     0.031084498498182
  14     0.041751510324625
  15     0.012730654723424
  16    -0.020004286693969
  17    0.00062343561443539
  18    -0.0017126918570397
  19    0.0038350237925003
  20    0.0081807926495969
  21     -0.26362083591811
  22    -0.0060527137865978
  23    0.00061761425399441
  24    0.0030556755701751
  25    -0.013434968893529
  26    -0.0093967772302116
  27      0.10930096204852
  28    -0.018019936498666
  29     0.075650808467322
  30    -0.029125227077282
  31     0.041683187330027
  32      0.19838212098523
  33     -0.11495943380112
  34    0.00028473439419975
  35    -0.0042148703301715
  36    -0.0012301179148721
  37    0.00072124301551913
  38    -2.005486845101e-06
  39      0.04637482960863
  40      -1.6072202544125
  41     0.011755418236592
  42     0.013741764562348
  43     -0.03760283116308
  44    -0.052292261890362
  45       2.1227623461989
  46    -0.022524550249857
  47     0.045662506696985
  48    -0.0077699490655462
 Sym= A
 Ene=              14
 Spin= Alpha
 Occup=    0.00000
   1    -0.063831196271155
   2     -0.15222275071874
   3      0.24238467816925
   4      0.18343435839292
   5    -0.037013714094507
   6       0.1850748135343
   7     -0.37491954281484
   8      0.58930905392347
   9     -0.74585317777791
  10    -0.081999829175391
  11      0.02750368328697
  12    0.0088942159035266
  13    -0.0034397961158777
  14    -0.037601901569481
  15      0.68465904482164
  16       -1.022999480888
  17      0.02660892725622
  18     0.034806498451953
  19     0.020391302769026
  20      0.19558274611132
  21      -0.2591349866873
  22     0.046715471462088
  23    -0.031415569246217
  24    -0.035908158253617
  25     0.098484256376547
  26      0.31566524303737
  27     0.022807911744076
  28    -0.0087676820842169
  29     -0.10569806493129
  30      0.27692642386801
  31      0.11390466481221
  32     0.086593663604008
  33     -0.46118308681123
  34     0.041365783357104
  35    -0.008243618740943
  36    -0.025935632844456
  37    -0.030950890038234
  38    0.0025550438370862
  39     -0.49363925727678
  40     0.057414769884587
  41     0.031215542741025
  42     0.033560852467771
  43     0.021853371132983
  44      0.48191603147334
  45     0.038541696937694
  46      0.03855186998972
  47    -0.016070834415862
  48    -0.0082333453320902
 Sym= A
 Ene=              15
 Spin= Alpha
 Occup=    0.00000
   1      0.05315172461306
   2      0.13221977341022
   3     -0.23172303110424
   4      -0.1027497284982
   5     -0.12516772839348
   6     -0.14291386280072
   7      0.14741852848311
   8      0.62142289223743
   9     -0.17668085917978
  10     -0.08917094332279
  11     0.034165485777458
  12     0.035562645018856
  13    -0.066228420683078
  14    -0.055257073083486
  15     -0.79265785281748
  16       1.0567445593631
  17    -0.015831855628356
  18    -0.0044154162340288
  19    -0.053821880557692
  20     -0.31832900318984
  21     0.061788874507132
  22     0.017611009687143
  23     0.045142892139241
  24    -0.0047474458339565
  25      0.13928151596348
  26      0.36350163395385
  27     -0.39030778915713
  28      0.16111811390981
  29      0.14333394644899
  30     -0.16738661361117
  31     0.031208905469589
  32    -0.045235841476862
  33      0.21598056586819
  34    -0.020636772489815
  35     0.025663747680964
  36       0.0331144178339
  37    -0.0072634282707858
  38    -0.0046586735927849
  39     -0.48854754159318
  40     0.056068215053808
  41    -0.078109470915169
  42    -0.013820958459182
  43     0.068179828192202
  44      0.43901386607594
  45     -0.10446655203979
  46    0.0083084002693205
  47     -0.03189276884517
  48    -0.048701695534885
 Sym= A
 Ene=              16
 Spin= Alpha
 Occup=    0.00000
   1     0.015594081769654
   2     0.011235440348585
   3     -0.11246129014782
   4    -0.097086645684578
   5     0.020332253628334
   6     -0.10475946968435
   7     0.046525423023307
   8     -0.22234916252602
   9      0.14639194335812
  10    -0.0013919124451034
  11     0.013637962199815
  12    -0.022574717443405
  13    -0.052451361597442
  14    0.0037310334147735
  15       0.5741498128486
  16     -0.89817868080543
  17     -0.01074936369328
  18    -0.027871071618727
  19    -0.0065839304617963
  20      -1.1035622054961
  21       1.4676533349404
  22    -0.022425293362663
  23     0.026899828391096
  24    -0.00063532335109286
  25    -0.048338820941585
  26      -0.1380004008875
  27     0.029047251027268
  28      0.11011542482747
  29      0.19114171475956
  30     -0.21103650748668
  31     -0.10133728583754
  32      -0.3640802088251
  33      0.08059340943466
  34     0.011167112788735
  35    0.0027060267715537
  36     0.029316333495967
  37     0.026528637890218
  38    -0.0064515964891286
  39     0.096548134806912
  40      0.10158895828818
  41    -0.023613869419278
  42     0.026067461820919
  43     0.010609600044264
  44      0.12705335560822
  45     -0.17447709789456
  46     0.023416121177732
  47    -0.031936306028897
  48     0.010932797216063
 Sym= A
 Ene=              17
 Spin= Alpha
 Occup=    0.00000
   1    -0.056702283356977
   2     0.019881529862582
   3      0.68928661862987
   4     -0.41693380799101
   5     0.080823353545524
   6       0.1081161974952
   7      0.87741979515449
   8     -0.53740148420348
   9     -0.57928750120373
  10    -0.038105590473606
  11      0.02058485914155
  12      0.11585664338028
  13     0.098558680762629
  14     0.070714378040234
  15     0.058971924869333
  16     -0.28428463487973
  17     0.065092774825278
  18    0.0004417743224761
  19     0.008308699158126
  20     -0.25608132948645
  21      0.55092678848488
  22     -0.01317774567653
  23    0.0068839365321804
  24    -0.011611160368318
  25     0.076804507909324
  26      0.21232900015911
  27     -0.11520462965387
  28    0.0060168839254159
  29      -0.1611180174049
  30        0.220486123933
  31     0.092776023539079
  32      0.14533679910907
  33       -0.246315990708
  34    0.0058954494173388
  35    -0.023680581323775
  36    0.0049523866093676
  37     0.013668018160246
  38    -0.014803977129367
  39     -0.63351986166701
  40    -0.059386780435871
  41    0.0016092083900173
  42    -0.065256014107069
  43      0.04527758202178
  44     -0.72668546223701
  45     -0.11242677986272
  46    -0.016096004179135
  47     0.046077529691922
  48    -0.051015447672388
 Sym= A
 Ene=              18
 Spin= Alpha
 Occup=    0.00000
   1    -0.057157665266745
   2     -0.18263905137569
   3     -0.11290940256975
   4     -0.30064778635534
   5     -0.59885452132963
   6     -0.50759763771722
   7      0.32837467732707
   8      0.78319231717313
   9      0.43685746115192
  10     0.025038002459089
  11     0.014103063502559
  12     0.016471743560245
  13     0.027313986721691
  14     0.038013022365089
  15      0.17720138351773
  16     0.077534511536457
  17    -0.0039945217965633
  18     0.011863064605361
  19    0.0012106429442825
  20    0.00072609331154912
  21     -0.12884948417244
  22     0.025353682484253
  23    0.0059805123512126
  24    0.0050968891995698
  25     0.066368904641302
  26      0.18169953884652
  27     -0.10199294563181
  28     -0.49923471138942
  29     -0.27566386495044
  30     0.051255389702302
  31      0.53315060369626
  32      0.25934505341738
  33    -0.086976884578036
  34    0.0022713957774233
  35     0.025658994890275
  36    0.0018866620274234
  37    -0.003653175779635
  38     0.013714427648112
  39     0.049940324960607
  40    -0.081624101965281
  41     -0.01315459349293
  42    -0.038362016364914
  43    -0.0042000619584408
  44     0.019645703103519
  45      0.23779824009672
  46    -0.067555720321284
  47     0.039284712372608
  48    -0.022102903258218
 Sym= A
 Ene=              19
 Spin= Alpha
 Occup=    0.00000
   1      0.11693968882944
   2      0.23104203506997
   3     -0.33517889226656
   4     -0.12201261900338
   5     0.085761886628888
   6      0.25191333590133
   7        0.220042471202
   8    -0.089504084077559