[Molden Format]
made by pyscf v[1.6.1-1]
[Atoms] (AU)
C   1   6   -11.39531309278476    -5.04084443727730    -1.94806197003039
H   2   1   -10.01998931658756    -5.10229833084816    -0.39699366424863
H   3   1   -13.24486363994157    -4.63629186853041    -1.10167253609894
C   4   6   -10.68587211110055    -2.93727690445646    -3.80035262006781
H   5   1    -8.87844355926029    -3.38827894134516    -4.70934868050610
H   6   1   -12.10278875929943    -2.82003829568844    -5.30784384141710
C   7   6   -10.54869689171837    -0.41989714487836    -2.49421171729093
H   8   1   -12.27320426121271     0.23398588874365    -1.58425189652912
C   9   6    -8.42746041963284     0.95850688490189    -2.30979334479463
H   10   1    -8.48120423061547     2.78547520487015    -1.36634757710552
C   11   6    -5.91780963990421     0.16406602213474    -3.37232965285383
H   12   1    -6.08990699806835    -1.62338812456886    -4.40740824032309
H   13   1    -5.30807060855205     1.59538238340281    -4.74124725748876
C   14   6    -3.93286021592231    -0.10661834794796    -1.28760268949490
H   15   1    -3.76792491977028     1.67395719566222    -0.23717952589416
H   16   1    -4.53556946609110    -1.55573592930943     0.06795455143936
[GTO]
1 0
 s    8 1.00
                  6665  0.00069158396281299
                  1000  0.0053257961529341
                   228   0.027060721042034
                 64.71    0.10165684614077
                 21.06     0.2745748236174
                 7.495    0.44829431892377
                 2.797    0.28490261071525
                0.5215   0.015194859206082
 s    8 1.00
                  6665  -0.00029326965268655
                  1000  -0.0023180354739745
                   228  -0.011499786038565
                 64.71  -0.046826727009787
                 21.06   -0.12846616875047
                 7.495   -0.30126627246289
                 2.797   -0.25563070233011
                0.5215      1.093793361012
 s    1 1.00
                0.1596                   1
 p    3 1.00
                 9.439   0.056979251590039
                 2.002    0.31320721150073
                0.5456    0.76037674173753
 p    1 1.00
                0.1517                   1
 d    1 1.00
                  0.55                   1

2 0
 s    3 1.00
                 13.01   0.033498726389998
                 1.962    0.23480080117413
                0.4446     0.8136829578829
 s    1 1.00
                 0.122                   1
 p    1 1.00
                 0.727                   1

3 0
 s    3 1.00
                 13.01   0.033498726389998
                 1.962    0.23480080117413
                0.4446     0.8136829578829
 s    1 1.00
                 0.122                   1
 p    1 1.00
                 0.727                   1

4 0
 s    8 1.00
                  6665  0.00069158396281299
                  1000  0.0053257961529341
                   228   0.027060721042034
                 64.71    0.10165684614077
                 21.06     0.2745748236174
                 7.495    0.44829431892377
                 2.797    0.28490261071525
                0.5215   0.015194859206082
 s    8 1.00
                  6665  -0.00029326965268655
                  1000  -0.0023180354739745
                   228  -0.011499786038565
                 64.71  -0.046826727009787
                 21.06   -0.12846616875047
                 7.495   -0.30126627246289
                 2.797   -0.25563070233011
                0.5215      1.093793361012
 s    1 1.00
                0.1596                   1
 p    3 1.00
                 9.439   0.056979251590039
                 2.002    0.31320721150073
                0.5456    0.76037674173753
 p    1 1.00
                0.1517                   1
 d    1 1.00
                  0.55                   1

5 0
 s    3 1.00
                 13.01   0.033498726389998
                 1.962    0.23480080117413
                0.4446     0.8136829578829
 s    1 1.00
                 0.122                   1
 p    1 1.00
                 0.727                   1

6 0
 s    3 1.00
                 13.01   0.033498726389998
                 1.962    0.23480080117413
                0.4446     0.8136829578829
 s    1 1.00
                 0.122                   1
 p    1 1.00
                 0.727                   1

7 0
 s    8 1.00
                  6665  0.00069158396281299
                  1000  0.0053257961529341
                   228   0.027060721042034
                 64.71    0.10165684614077
                 21.06     0.2745748236174
                 7.495    0.44829431892377
                 2.797    0.28490261071525
                0.5215   0.015194859206082
 s    8 1.00
                  6665  -0.00029326965268655
                  1000  -0.0023180354739745
                   228  -0.011499786038565
                 64.71  -0.046826727009787
                 21.06   -0.12846616875047
                 7.495   -0.30126627246289
                 2.797   -0.25563070233011
                0.5215      1.093793361012
 s    1 1.00
                0.1596                   1
 p    3 1.00
                 9.439   0.056979251590039
                 2.002    0.31320721150073
                0.5456    0.76037674173753
 p    1 1.00
                0.1517                   1
 d    1 1.00
                  0.55                   1

8 0
 s    3 1.00
                 13.01   0.033498726389998
                 1.962    0.23480080117413
                0.4446     0.8136829578829
 s    1 1.00
                 0.122                   1
 p    1 1.00
                 0.727                   1

9 0
 s    8 1.00
                  6665  0.00069158396281299
                  1000  0.0053257961529341
                   228   0.027060721042034
                 64.71    0.10165684614077
                 21.06     0.2745748236174
                 7.495    0.44829431892377
                 2.797    0.28490261071525
                0.5215   0.015194859206082
 s    8 1.00
                  6665  -0.00029326965268655
                  1000  -0.0023180354739745
                   228  -0.011499786038565
                 64.71  -0.046826727009787
                 21.06   -0.12846616875047
                 7.495   -0.30126627246289
                 2.797   -0.25563070233011
                0.5215      1.093793361012
 s    1 1.00
                0.1596                   1
 p    3 1.00
                 9.439   0.056979251590039
                 2.002    0.31320721150073
                0.5456    0.76037674173753
 p    1 1.00
                0.1517                   1
 d    1 1.00
                  0.55                   1

10 0
 s    3 1.00
                 13.01   0.033498726389998
                 1.962    0.23480080117413
                0.4446     0.8136829578829
 s    1 1.00
                 0.122                   1
 p    1 1.00
                 0.727                   1

11 0
 s    8 1.00
                  6665  0.00069158396281299
                  1000  0.0053257961529341
                   228   0.027060721042034
                 64.71    0.10165684614077
                 21.06     0.2745748236174
                 7.495    0.44829431892377
                 2.797    0.28490261071525
                0.5215   0.015194859206082
 s    8 1.00
                  6665  -0.00029326965268655
                  1000  -0.0023180354739745
                   228  -0.011499786038565
                 64.71  -0.046826727009787
                 21.06   -0.12846616875047
                 7.495   -0.30126627246289
                 2.797   -0.25563070233011
                0.5215      1.093793361012
 s    1 1.00
                0.1596                   1
 p    3 1.00
                 9.439   0.056979251590039
                 2.002    0.31320721150073
                0.5456    0.76037674173753
 p    1 1.00
                0.1517                   1
 d    1 1.00
                  0.55                   1

12 0
 s    3 1.00
                 13.01   0.033498726389998
                 1.962    0.23480080117413
                0.4446     0.8136829578829
 s    1 1.00
                 0.122                   1
 p    1 1.00
                 0.727                   1

13 0
 s    3 1.00
                 13.01   0.033498726389998
                 1.962    0.23480080117413
                0.4446     0.8136829578829
 s    1 1.00
                 0.122                   1
 p    1 1.00
                 0.727                   1

14 0
 s    8 1.00
                  6665  0.00069158396281299
                  1000  0.0053257961529341
                   228   0.027060721042034
                 64.71    0.10165684614077
                 21.06     0.2745748236174
                 7.495    0.44829431892377
                 2.797    0.28490261071525
                0.5215   0.015194859206082
 s    8 1.00
                  6665  -0.00029326965268655
                  1000  -0.0023180354739745
                   228  -0.011499786038565
                 64.71  -0.046826727009787
                 21.06   -0.12846616875047
                 7.495   -0.30126627246289
                 2.797   -0.25563070233011
                0.5215      1.093793361012
 s    1 1.00
                0.1596                   1
 p    3 1.00
                 9.439   0.056979251590039
                 2.002    0.31320721150073
                0.5456    0.76037674173753
 p    1 1.00
                0.1517                   1
 d    1 1.00
                  0.55                   1

15 0
 s    3 1.00
                 13.01   0.033498726389998
                 1.962    0.23480080117413
                0.4446     0.8136829578829
 s    1 1.00
                 0.122                   1
 p    1 1.00
                 0.727                   1

16 0
 s    3 1.00
                 13.01   0.033498726389998
                 1.962    0.23480080117413
                0.4446     0.8136829578829
 s    1 1.00
                 0.122                   1
 p    1 1.00
                 0.727                   1

[5d]
[9g]


[MO]
 Sym= A
 Ene=               0
 Spin= Alpha
 Occup=    1.00000
   1    -4.0820747049412e-05
   2    -0.00028804017452856
   3    0.0012326131108052
   4    -2.6985934910595e-07
   5    1.6178501836737e-05
   6    -2.2645435497349e-05
   7    1.6292251236207e-05
   8    0.00071752749005917
   9    -0.00036655785220602
  10    -2.3193473376736e-05
  11    -1.0603209448192e-05
  12    -1.9692027385169e-05
  13    -9.2691781875601e-05
  14    5.3483024276813e-06
  15    -0.00012644485203261
  16    0.00029794010162906
  17    -3.689176980808e-05
  18    -1.6632655496231e-05
  19    -3.9469593647742e-05
  20    -8.541929607792e-05
  21    -0.00010220472391118
  22    6.9544670937293e-06
  23    -3.6686982432558e-05
  24    -8.9977740280352e-06
  25     0.062323094625715
  26    0.00032557595882357
  27    -0.00035191848525714
  28    -2.0803931718162e-05
  29    5.6533218875917e-05
  30    -2.4714337878928e-05
  31    0.00056289412405439
  32    0.0009189256235115
  33    -8.9850445984192e-05
  34    -1.4809488205846e-05
  35    8.3600648188877e-05
  36    -5.4329975470405e-05
  37    6.5277536166766e-05
  38    6.1756694176212e-05
  39    -2.1302016069973e-05
  40    -4.602092722572e-05
  41    -2.3541302296802e-05
  42    -9.5175613730098e-07
  43    3.1428225597604e-05
  44    -5.34288558574e-05
  45    0.00038110492784252
  46    -4.1055734741726e-05
  47    4.1807965550282e-05
  48    4.9646976267608e-05
  49      0.66955285148928
  50    0.0026512561982123
  51    -0.0041182057261939
  52    -0.00038145385798101
  53    0.00025635331190548
  54    1.8874009942257e-07
  55    0.00022501628929646
  56    0.00066861723733192
  57    -3.8212407592923e-05
  58    -0.00013355433895058
  59    -9.9332620898183e-05
  60    5.3083652094437e-06
  61    0.00019380147224731
  62    8.7566275847756e-05
  63    -0.00029287970542475
  64    0.00092965477620039
  65    -0.0002869695899509
  66    0.00015006957296941
  67    0.00017637887641749
  68      0.73940239546324
  69    0.0029812066259517
  70    -0.0048351615189165
  71    -0.00011315818021715
  72    0.00049750903429952
  73    5.3225597848278e-07
  74    -0.00058449363812032
  75    0.00013495436399098
  76    -3.6342855180343e-05
  77    -0.00018374303246359
  78    3.9587892983885e-05
  79    0.00015260549151408
  80    -8.5075864971153e-05
  81    0.0002026319178654
  82    -0.00034679407651291
  83    0.00098854085044207
  84    -5.0040178172346e-05
  85    0.00037501915407433
  86    0.00020457392596372
  87     0.067235465690489
  88    0.00037205730468568
  89    -0.00041836114239095
  90    -4.3020274959711e-05
  91    4.2609191432345e-05
  92    -2.862535864971e-05
  93    -0.0010989156314184
  94    -0.00015114694579516
  95    -0.00030354800891285
  96    -1.2802104859938e-05
  97    4.7459236078633e-05
  98    -9.7828003980552e-05
  99    -1.5904161481221e-05
 100    0.00010664940915627
 101    -1.3789475665087e-05
 102    -6.6818237449662e-05
 103    6.1489323806469e-06
 104    1.7777409139103e-05
 105    4.0106254778424e-05
 106    -5.9630884153009e-05
 107    0.00039727731023907
 108    -3.2765210428436e-05
 109    5.6743259111883e-05
 110    5.8280234733032e-05
 111    -4.8956379567115e-05
 112    -0.00032119403234115
 113    0.0013945810747112
 114    -1.3312108495837e-05
 115    9.8704079554731e-06
 116    -2.3228695615951e-05
 117    -0.00069318410467194
 118    0.00027008126457574
 119    -0.0004278127165461
 120    -2.1466163810889e-05
 121    2.6268684944042e-05
 122    -9.6726960807812e-06
 123    6.9788569752109e-05
 124    -6.3113277081955e-05
 125    -9.7256538242788e-05
 126    -9.5784464038682e-05
 127    3.3645229375754e-05
 128    -1.89387909302e-05
 129    -1.0287431351543e-05
 130    -0.00014403703269159
 131    0.00025671213576084
 132    3.6757012463059e-05
 133    2.6535430920564e-05
 134    -2.9041491658418e-05
 Sym= A
 Ene=               1
 Spin= Alpha
 Occup=    1.00000
   1    7.8148024756936e-05
   2    -0.00041677810005132
   3    0.0019217579129081
   4    -1.3386131375361e-05
   5    -1.326441746047e-05
   6    -2.5533042569206e-05
   7    0.00016262063972588
   8    0.00088613428709472
   9    -0.00033218254231042
  10    -2.0959225078996e-05
  11    3.5104708378927e-05
  12    -1.2144235201329e-05
  13    -9.3668193140417e-05
  14    1.8754864760566e-05
  15    -0.00020273938764166
  16    0.00015646878521346
  17    4.3727351160105e-06
  18    7.150533301897e-06
  19    -3.6322488529559e-05
  20    -0.00012810305654454
  21    -0.00012821527198708
  22    -3.3509418050229e-06
  23    -6.1621411725936e-05
  24    -2.6055086001165e-05
  25      0.13005932811924
  26    0.00093951859257924
  27    -0.001590566397583
  28    -6.739089516448e-06
  29    0.0001378109840919
  30    -5.1693965959201e-05
  31    0.00065042326669397
  32    0.00065541311136301
  33    -0.00076043005501341
  34    0.00010723328372045
  35    0.00015156750850943
  36    -0.00017158896916236
  37    0.00014134976802734
  38    -1.3221116992143e-05
  39    6.5578934520982e-05
  40    -0.00020388314850459
  41    2.5926349413769e-05
  42    8.0271958267857e-06
  43    4.5276230915007e-05
  44    -8.7864501895243e-05
  45    0.00031078636846376
  46    -0.00012640017378741
  47    4.8604527250608e-05
  48    1.2387158836361e-05
  49      0.73184372836245
  50    0.0037389414265354
  51    -0.0086353782903274
  52    -0.00012888043908842
  53    0.00014604240965637
  54    0.00034180663628581
  55    -0.0024064201786329
  56    -0.00059583282616244
  57    0.00019543329179499
  58    -0.00039388801275803
  59    -0.00026179303883007
  60    0.00031232554024504
  61    0.00030349830713105
  62    0.00015425470965122
  63    -0.00052584150474232
  64    0.00034932362536305
  65    -0.0004959617626543
  66    0.00020771135375282
  67    0.00031382963675622
  68     -0.66356652049636
  69    -0.0034465602535284
  70     0.008230802253113
  71    0.00018221625381374
  72    -0.00023693625255878
  73    -0.00012171527242694
  74    -0.001491872045236
  75    -0.0019860373661702
  76    -0.00042521204806517
  77    0.00038135185675902
  78    8.4639659707471e-05
  79    -0.00042557718995841
  80    4.2663331069037e-05
  81    -0.00025487192350114
  82    0.00050427619698039
  83    -0.00026067112475265
  84    4.0198512189748e-05
  85    -0.00050911654724643
  86    -0.0002825458788008
  87     -0.11246663567036
  88    -0.00085002050136745
  89    0.0014415174281296
  90    9.8124384543542e-05
  91    -5.0263422596851e-05
  92    4.5544050406564e-05
  93    0.00066126491803538
  94    0.00028751743792993
  95    0.00083042516069685
  96    -0.00010034275485569
  97    -7.6553429929894e-05
  98    0.0001904096146611
  99    0.00012092144455857
 100    -9.7632042536651e-05
 101    -7.0298444711636e-05
 102    0.00021302496755835
 103    1.9622747245281e-05
 104    1.9153918516144e-05
 105    -4.0876739760667e-05
 106    0.00010160936356231
 107    -0.00023987198301016
 108    -5.1953309744678e-07
 109    -0.00012403469562039
 110    -2.0230434970424e-05
 111    -5.5958367683772e-05
 112    0.00037762391203202
 113    -0.0017908558659716
 114    6.0730173216882e-06
 115    -1.2466755408725e-05
 116    2.3749187988841e-05
 117    0.0008093713654266
 118    -0.00018210887163586
 119    0.00036704978697856
 120    2.3693951985942e-05
 121    -6.3655860604658e-06
 122    4.4633064470969e-05
 123    -6.9329443592705e-05
 124    4.1998386939496e-05
 125    0.00011744385101782
 126    0.00012386658721319
 127    -5.7413536540204e-05
 128    1.5683556200917e-05
 129    1.9506826235191e-05
 130    0.00018779426282455
 131    -0.00012248105191095
 132    7.4902651627239e-07
 133    1.2506521979016e-06
 134    3.1553102794301e-05
 Sym= A
 Ene=               2
 Spin= Alpha
 Occup=    1.00000
   1    0.0028347449838677
   2    -1.8293760448299e-06
   3     0.002546843067653
   4    5.5121079200007e-05
   5    0.00018607852296611
   6    -0.00012476923657008
   7    0.00027040218941849
   8     0.001025261104192
   9    -0.00070781892985613
  10    -7.388799611083e-06
  11    1.856089530276e-05
  12    1.2803356899262e-05
  13    6.8710830657829e-05
  14    -2.2783086383068e-05
  15    -0.00011512360649958
  16    9.2245867491929e-05
  17    2.8837361419226e-05
  18    5.4796639858032e-05
  19    -6.0203566731703e-05
  20    -0.00013444381762495
  21    5.7751017690658e-05
  22    1.1105784194857e-05
  23    5.3709093391919e-05
  24    -5.8280241658569e-05
  25       0.9897509873895
  26    0.0050825361161283
  27    -0.011954901803229
  28    3.942924465113e-06
  29    0.0004205375589133
  30    -0.00058599897383824
  31     0.000187171868478
  32    -0.00062789287857129
  33    -0.0013176445616742
  34    4.2680147714352e-05
  35    0.00010938516516311
  36    8.529100896475e-05
  37    0.00027998605408517
  38    -0.00011445057616705
  39    0.0001224539553345
  40    0.0013415216333831
  41    0.0004422930871331
  42    -9.8574152486695e-05
  43    -0.00011971341117516
  44    2.4810047740347e-05
  45    0.0011034015636154
  46    -0.00047416863845762
  47    2.2840031914915e-05
  48    -0.00038328714851401
  49     -0.13493109689557
  50    -0.00056079218489503
  51    0.0029934691610274
  52    1.3633949836324e-05
  53    -0.00015657942913295
  54    -7.8410914875775e-05
  55    -0.00049201845988954
  56    -0.0019078706772217
  57    -0.00084162952953171
  58    7.6414612681553e-05
  59    1.0631440667148e-05
  60    -0.00026242801062573
  61    0.00016432679998237
  62    -6.5880153952724e-05
  63    -1.1573090947697e-05
  64    -2.3978244313008e-05
  65    0.00013664334939234
  66    1.5458430213232e-05
  67    -2.9718395987015e-05
  68     0.031437192084246
  69     -5.5516787828e-05
  70    0.00055729324337424
  71    -2.4202735872569e-05
  72    9.5387479561144e-05
  73    4.529328944784e-05
  74    -0.00063164088292523
  75    -0.00014848213332802
  76    9.7814464152821e-05
  77    -0.00011392922132997
  78    -8.2045827899081e-05
  79    9.2169330074978e-05
  80    4.6133377510453e-05
  81    4.9638311154227e-05
  82    -7.6734413360635e-05
  83    0.00018464642828653
  84    3.8349514877339e-05
  85    3.0449386339797e-05
  86    1.7573743868603e-06
  87     0.079642025063654
  88    0.00014505580604543
  89    2.5314216412728e-05
  90    6.0629066621185e-05
  91    4.7372006951139e-05
  92    -7.0952271872384e-05
  93    -0.00021388772449223
  94    -0.00038330489392512
  95    0.00012928306029643
  96    2.4315704796094e-06
  97    7.711232092154e-06
  98    6.7048518580437e-05
  99    -6.0783344740981e-05
 100    -3.5694404407972e-06
 101    -0.00013270631462146
 102    -0.00035826362175743
 103    -4.6834358788469e-05
 104    -5.8915248281055e-05
 105    -2.2909630770367e-05
 106    5.8822090091211e-05
 107    0.00029519875670797
 108    3.1806530829766e-06
 109    2.9988140940423e-05
 110    7.2452698941794e-06
 111    0.0002434984107084
 112    2.2364486187224e-05
 113    -5.2446693280318e-05
 114    -8.0274845861212e-06
 115    -8.7764049111812e-06
 116    4.5138208327861e-07
 117    6.8587904008011e-05
 118    0.00012081800065492
 119    -5.4359166076484e-05
 120    7.103326430655e-06
 121    -1.8069171173686e-05
 122    -6.7631096862137e-06
 123    -1.1426078441549e-05
 124    -2.7859701195508e-05
 125    2.7802019661196e-06
 126    7.3695596761245e-06
 127    -2.0623849970587e-05
 128    -8.5719847071835e-06
 129    -9.4823415702581e-06
 130    3.0319164609245e-05
 131    4.3932646076647e-05
 132    4.212044436889e-06
 133    -1.0240605314463e-07
 134    3.1339837957312e-07
 Sym= A
 Ene=               3
 Spin= Alpha
 Occup=    1.00000
   1    -0.00018372696432324
   2    2.3229079349594e-05
   3    -0.00044262868624059
   4    1.8831077215336e-06
   5    -2.7221954794878e-05
   6    2.1083205388856e-05
   7    -0.00017602783882918
   8    -0.00017603847760124
   9    3.6536468889509e-05
  10    1.1911286936232e-05
  11    6.3614825361262e-06
  12    8.9472491854622e-06
  13    -2.2735217200312e-05
  14    -2.8316502734084e-05
  15    4.6877227963106e-05
  16    3.0046854093509e-05
  17    -5.8972963172186e-06
  18    -1.2611191537749e-05
  19    9.2544335683667e-06
  20    2.3776691362186e-05
  21    -2.804880004816e-06
  22    1.5394387373223e-05
  23    7.9932128339384e-06
  24    2.336189921853e-06
  25    -0.069334925541435
  26    -0.00062818921340598
  27    0.0018775400358363
  28    -6.1404240634556e-05
  29    -9.1979524543403e-05
  30    6.8808836557237e-06
  31     0.000419585731448
  32    0.0001404990994788
  33    0.00037041663594339
  34    -1.468738278387e-05
  35    -7.8337784955872e-05
  36    -2.7328366323089e-07
  37    6.2110178827044e-06
  38    -2.3760648066789e-05
  39    -0.00015680087400482
  40    -0.00059895545518433
  41    6.6668869513882e-06
  42    3.6414987136614e-05
  43    -1.5803534865215e-06
  44    5.3104528786794e-05
  45    0.00014764467028076
  46    4.2564712602504e-05
  47    4.963755087477e-06
  48    6.3207426185944e-05
  49     0.048253693056376
  50    1.4022880920242e-05
  51    0.00010275562131711
  52    -7.7694441614551e-05
  53    6.5574589860808e-05
  54    6.9892919139781e-05
  55    0.0004106570366453
  56    0.00080687583526881
  57    0.00035602324764952
  58    -0.00011014587020051
  59    -1.599834548344e-05
  60    0.00017095139287333
  61    -1.2482408410425e-05
  62    6.6724816013821e-05
  63    -7.2588541555285e-05
  64    0.00016041976634394
  65    -5.62738687977e-05
  66    -3.1044752042832e-05
  67    1.788665892355e-06
  68     -0.12801242633515
  69    -0.00050163036044014
  70    0.0029028160764828
  71    0.00015437810995361
  72    -9.4439368344876e-05
  73    -4.0948360948074e-05
  74    0.0021620270584606
  75    -0.0002904643647436
  76    -0.00065509611452782
  77    0.00012660209420364
  78    0.00021162892832038
  79    -0.00010882611764925
  80    -0.00020902146707369
  81    7.5374476782915e-05
  82    -6.3430161940081e-06
  83    -5.4133424257704e-06
  84    -6.6630641876911e-05
  85    -0.00011780386206178
  86    -3.3048955622538e-05
  87      0.99080989465992
  88    0.0051328607854918
  89    -0.012166003363324
  90    -0.00033305337474853
  91    0.00018837292803157
  92    -0.00060939759843534
  93    0.00069503274798197
  94    -0.00029887044580587
  95    -0.0013109637765459
  96    1.139546064816e-05
  97    -0.00015448828402273
  98    -5.2281151415894e-05
  99    -0.00026398970876334
 100    0.00013235628796004
 101    0.00014354335214557
 102     0.001433222559388
 103    -6.0342124259073e-05
 104    -0.00043172043897999
 105    -0.00015056268125476
 106    2.4768380621194e-05
 107    0.0010830808714895
 108    0.00020724836678249
 109    0.00046545652224945
 110    -0.00033964543181614
 111     0.002843099057378
 112    -1.2859706425588e-05
 113    0.0026150128647414
 114    -0.00017470647814963
 115    2.7468929125898e-05
 116    -0.00014694162086434
 117    -0.00098576435970549
 118    0.00020870346271043
 119    -0.00081925360571936
 120    -1.3972933861878e-05
 121    -2.0199381054873e-05
 122    -2.0901251654674e-06
 123    -6.3432658993257e-05
 124    3.3267995573909e-05
 125    -0.00014358428440592
 126    2.4749590087217e-05
 127    -3.9969727005547e-05
 128    1.6686061334317e-05
 129    -6.005453435009e-05
 130    -0.00012286581739185
 131    0.00011315793638043
 132    -5.7001144788634e-05
 133    -1.1473757824935e-07
 134    -7.0950931255744e-05
 Sym= A
 Ene=               4
 Spin= Alpha
 Occup=    1.00000
   1    -0.0021940381536457
   2    -0.00011323058475284
   3    0.00031292024596963
   4    -2.1187351481491e-06
   5    -1.8460329829918e-05
   6    2.7780562033366e-06
   7    9.8843196841929e-05
   8    8.071814786782e-05
   9    0.00010021639905784
  10    -5.2164114918673e-06
  11    9.3283276672684e-06
  12    1.6764319270273e-05
  13    -8.6057255534946e-06
  14    9.6350459340923e-06
  15    -2.8521226064431e-05
  16    -0.00020524835905405
  17    1.0831190462116e-05
  18    -8.3188590187951e-06
  19    1.6598401380276e-05
  20    -3.7442255648301e-05
  21    3.4087922344252e-05
  22    -4.5133846256089e-07
  23    -5.7538625890055e-06
  24    -7.7261159869385e-06
  25    -8.9876444088728e-06
  26    -1.5859515964673e-05
  27    0.0006103953901833
  28    1.5587803374774e-05
  29    3.7714817770233e-05
  30    1.1036583643454e-05
  31    -6.1448955031471e-05
  32    0.00020957974162226
  33    0.00010818817701008
  34    1.4743461389193e-05
  35    9.7520439906882e-06
  36    7.5863744743918e-06
  37    -5.8236014751194e-06
  38    1.0984978748068e-05
  39    8.2704983561262e-07
  40    -1.8861981609547e-05
  41    -1.116276204742e-05
  42    -2.7044258070542e-06
  43    -5.6799554005999e-06
  44    -3.524368277154e-05
  45    -2.0361664192506e-05
  46    -2.5641859872029e-06
  47    2.3435988865357e-06
  48    -8.1872608913032e-06
  49    2.1486243270995e-05
  50    4.5467309305445e-05
  51    0.00042825485873099
  52    2.4440191256157e-05
  53    -7.7151403418365e-05
  54    2.9759003270638e-05
  55    -6.930257319548e-06
  56    0.0010813359408176
  57    0.00022037535984039
  58    1.3098904394156e-05
  59    1.4682857362747e-05
  60    -1.7745147035996e-07
  61    -3.6610875051099e-05
  62    2.9962588970939e-05
  63    -4.2988342201516e-05
  64    -0.00011477734342021
  65    2.590434881752e-05
  66    -4.7270132067226e-05
  67    5.6290322864002e-06
  68    -0.00020062276306844
  69    -0.00052540504150003
  70    0.0013148814199215
  71    -0.00013548690395793
  72    2.784482526557e-05
  73    -6.113873254505e-06
  74    0.0021570851879126
  75    -0.00035919809566401
  76    1.3341999438728e-06
  77    -3.0549954439219e-05
  78    9.8095128150451e-05
  79    4.6040360066746e-05
  80    9.9721733320953e-05
  81    -5.0280922254775e-05
  82    -0.00012801308041759
  83    5.585939585226e-05
  84    -0.00016461842055524
  85    1.0917323417929e-05
  86    -4.2990916216455e-05
  87    -0.0028505564199772
  88    0.0002637129454265
  89    -0.00055113149535687
  90    0.00010851173750731
  91    4.8877227312045e-06
  92    2.3037269725028e-06
  93    0.00080252478809651
  94    -0.00052021118648007
  95    -1.8617672921559e-05
  96    -0.00010924240623158
  97    -0.0002830378391604
  98    2.5898982006685e-05
  99    -0.00018312894668033
 100    6.5870116976473e-05
 101    -9.5386948557182e-05
 102    6.4247159644602e-05
 103    3.3058984054766e-05
 104    1.3582949738958e-06
 105    5.1675227147067e-05
 106    1.6038539929008e-05
 107    0.00016718920265935
 108    5.6173580695792e-05
 109    4.1497007404228e-06
 110    6.3759689967941e-05
 111       1.0021435720809
 112    0.0042336234667832
 113    -0.0075188885523242
 114    -0.0017162841382655
 115    0.00058491700750009
 116    0.00098458563739758
 117      0.00181211040408
 118    -0.00030904251047627
 119    -0.00041179499254356
 120    4.110240860275e-05
 121    -8.1569549891229e-05
 122    2.8153992317599e-06
 123    -0.00031784294548618
 124    0.00013196420893402
 125    -0.00026105414925887
 126    0.0012868224596429
 127    -3.0986809329057e-05
 128    0.00064182458293768
 129    0.00036249342835228
 130    -0.00018043906473561
 131    0.0014919840304182
 132    -0.00028497969195239
 133    -0.00044084073630264
 134    0.00041448213523763
 Sym= A
 Ene=               5
 Spin= Alpha
 Occup=    1.00000
   1       1.0021445843941
   2    0.0042359807131945
   3    -0.007531743543313
   4    -7.7401735817393e-05
   5    0.0017330170505623
   6    0.0011181881049535
   7    -0.00027304771299785
   8    -0.0017707161938564
   9    -0.00058434179197842
  10    5.3803342735319e-05
  11    4.6106646777674e-05
  12    3.0361614297679e-05
  13    0.0003237072295313
  14    -0.00012153602884402
  15    -0.00017712049480626
  16    0.0014723698483669
  17    0.00045288493047528
  18    7.2266616215599e-05
  19    0.00048591643183712
  20    -0.00026107283368179
  21    0.0013079500893675
  22    -0.00063153808078535