[Molden Format]
made by pyscf v[1.6]
[Atoms] (AU)
H   1   1     1.39839733217815     0.00000000000000     0.00000000000000
H   2   1     0.00000000000000     0.00000000000000     0.00000000000000
GHOST-H   3   0     2.79679466435629     0.00000000000000     0.00000000000000
GHOST-H   4   0     4.19519199653444     0.00000000000000     0.00000000000000
[GTO]
1 0
 s    2 1.00
              5.447178     0.1562849806701
              0.824547    0.90469088810453
 s    1 1.00
              0.183192                   1

2 0
 s    2 1.00
              5.447178     0.1562849806701
              0.824547    0.90469088810453
 s    1 1.00
              0.183192                   1

3 0
 s    2 1.00
              5.447178     0.1562849806701
              0.824547    0.90469088810453
 s    1 1.00
              0.183192                   1

4 0
 s    2 1.00
              5.447178     0.1562849806701
              0.824547    0.90469088810453
 s    1 1.00
              0.183192                   1

[5d]
[9g]


[MO]
 Sym= A
 Ene=   -0.4113166586
 Spin= Alpha
 Occup=    1.00000
   1     -0.29450353590186
   2     -0.38305678742876
   3     -0.29670661492931
   4     -0.32603416020358
   5    -0.0075079640692446
   6       0.1695387276053
   7      0.13231191879701
   8      0.22914581033312
 Sym= A
 Ene=   0.09370810133
 Spin= Alpha
 Occup=    0.00000
   1     -0.20376277717957
   2     -0.75637974505276
   3      0.16090339761534
   4       1.1384766004932
   5     -0.20376277300495
   6     -0.75637970238232
   7       0.1609033964972
   8       1.1384765814893
 Sym= A
 Ene=     0.360723955
 Spin= Alpha
 Occup=    0.00000
   1     -0.18048208699599
   2      -4.8980992253074
   3      -0.1446375745364
   4       2.5303727428879
   5      0.18048208841519
   6       4.8980992309001
   7      0.14463757038978
   8      -2.5303727500781
 Sym= A
 Ene=    0.5295020251
 Spin= Alpha
 Occup=    0.00000
   1      0.13557909902092
   2    -0.019016120987548
   3    -0.015809486411805
   4     -0.10862869379916
   5      0.32412598779984
   6      0.34402141962438
   7      0.26604193424017
   8      0.25610674176677
 Sym= A
 Ene=    0.7083981068
 Spin= Alpha
 Occup=    0.00000
   1     -0.54362213615348
   2      0.67461024485826
   3     -0.52987160062808
   4      0.06937091854726
   5     -0.54362213423157
   6      0.67461018720175
   7     -0.52987158992845
   8     0.069370933116857
 Sym= A
 Ene=     1.020123426
 Spin= Alpha
 Occup=    0.00000
   1      0.63825489221404
   2      -1.1141233892196
   3     -0.75528230063094
   4       1.3308631769757
   5      0.63825499666466
   6      -1.1141248178058
   7     -0.75528202075944
   8       1.3308634822099
 Sym= A
 Ene=     1.033513263
 Spin= Alpha
 Occup=    0.00000
   1     -0.36131522359947
   2       4.3240573431047
   3     -0.79890319681583
   4     -0.95126162352264
   5      0.36131501267645
   6      -4.3240569738412
   7      0.79890346069226
   8      0.95126117199186
 Sym= A
 Ene=     1.515915994
 Spin= Alpha
 Occup=    0.00000
   1       1.1275819445467
   2      -3.3078442071212
   3     -0.54193725258226
   4       1.4346135814296
   5      -1.1275819541353
   6       3.3078442215835
   7      0.54193726606352
   8      -1.4346135997705
