[Molden Format]
made by pyscf v[1.6]
[Atoms] (AU)
H   1   1     1.39839733217815     0.00000000000000     0.00000000000000
H   2   1     0.00000000000000     0.00000000000000     0.00000000000000
GHOST-H   3   0     2.79679466435629     0.00000000000000     0.00000000000000
GHOST-H   4   0     4.19519199653444     0.00000000000000     0.00000000000000
[GTO]
1 0
 s    2 1.00
              5.447178     0.1562849806701
              0.824547    0.90469088810453
 s    1 1.00
              0.183192                   1

2 0
 s    2 1.00
              5.447178     0.1562849806701
              0.824547    0.90469088810453
 s    1 1.00
              0.183192                   1

3 0
 s    2 1.00
              5.447178     0.1562849806701
              0.824547    0.90469088810453
 s    1 1.00
              0.183192                   1

4 0
 s    2 1.00
              5.447178     0.1562849806701
              0.824547    0.90469088810453
 s    1 1.00
              0.183192                   1

[5d]
[9g]


[MO]
 Sym= A
 Ene=   -0.4113166586
 Spin= Alpha
 Occup=    1.00000
   1      0.29450353590185
   2      0.38305678742876
   3      0.29670661492931
   4      0.32603416020358
   5    0.0075079640692438
   6      -0.1695387276053
   7     -0.13231191879701
   8     -0.22914581033312
 Sym= A
 Ene=   0.09370810133
 Spin= Alpha
 Occup=    0.00000
   1     -0.20376277717957
   2     -0.75637974505297
   3      0.16090339761534
   4       1.1384766004933
   5     -0.20376277300494
   6      -0.7563797023821
   7       0.1609033964972
   8       1.1384765814892
 Sym= A
 Ene=     0.360723955
 Spin= Alpha
 Occup=    0.00000
   1     -0.18048208699595
   2      -4.8980992253077
   3     -0.14463757453639
   4       2.5303727428879
   5      0.18048208841517
   6       4.8980992309004
   7       0.1446375703897
   8      -2.5303727500781
 Sym= A
 Ene=    0.5295020251
 Spin= Alpha
 Occup=    0.00000
   1      0.13557909902092
   2     -0.01901612098755
   3    -0.015809486411805
   4     -0.10862869379916
   5      0.32412598779983
   6      0.34402141962438
   7      0.26604193424017
   8      0.25610674176677
 Sym= A
 Ene=    0.7083981068
 Spin= Alpha
 Occup=    0.00000
   1     -0.54362213615346
   2      0.67461024485822
   3     -0.52987160062806
   4     0.069370918547247
   5      -0.5436221342316
   6      0.67461018720179
   7     -0.52987158992847
   8     0.069370933116869
 Sym= A
 Ene=     1.020123426
 Spin= Alpha
 Occup=    0.00000
   1      0.63825489221424
   2      -1.1141233892218
   3     -0.75528230063051
   4       1.3308631769762
   5      0.63825499666446
   6      -1.1141248178036
   7     -0.75528202075987
   8       1.3308634822095
 Sym= A
 Ene=     1.033513263
 Spin= Alpha
 Occup=    0.00000
   1      -0.3613152235992
   2        4.324057343104
   3     -0.79890319681623
   4     -0.95126162352183
   5      0.36131501267683
   6      -4.3240569738416
   7      0.79890346069184
   8      0.95126117199248
 Sym= A
 Ene=     1.515915994
 Spin= Alpha
 Occup=    0.00000
   1       1.1275819445467
   2       -3.307844207121
   3     -0.54193725258229
   4       1.4346135814296
   5      -1.1275819541353
   6       3.3078442215833
   7      0.54193726606356
   8      -1.4346135997704
