[Molden Format]
made by pyscf v[1.6.3]
[Atoms] (AU)
H   1   1     2.79679466435629     0.00000000000000     0.00000000000000
H   2   1     4.19519199653444     0.00000000000000     0.00000000000000
GHOST-H   3   0     1.39839733217815     0.00000000000000     0.00000000000000
GHOST-H   4   0     0.00000000000000     0.00000000000000     0.00000000000000
[GTO]
1 0
 s    2 1.00
              5.447178     0.1562849806701
              0.824547    0.90469088810453
 s    1 1.00
              0.183192                   1

2 0
 s    2 1.00
              5.447178     0.1562849806701
              0.824547    0.90469088810453
 s    1 1.00
              0.183192                   1

3 0
 s    2 1.00
              5.447178     0.1562849806701
              0.824547    0.90469088810453
 s    1 1.00
              0.183192                   1

4 0
 s    2 1.00
              5.447178     0.1562849806701
              0.824547    0.90469088810453
 s    1 1.00
              0.183192                   1

[5d]
[9g]


[MO]
 Sym= A
 Ene=   -0.5295019245
 Spin= Alpha
 Occup=    1.00000
   1      0.32412593509375
   2      0.34402191659955
   3      0.26604158772744
   4      0.25610675488616
   5      0.13557957698026
   6    -0.019016986510605
   7     -0.01580994230049
   8     -0.10862792422472
 Sym= A
 Ene=   0.09370763262
 Spin= Alpha
 Occup=    0.00000
   1     -0.20376426354896
   2     -0.75637696025305
   3       0.1609054638098
   4       1.1384731746527
   5     -0.20376426353018
   6     -0.75637695990243
   7      0.16090546377536
   8       1.1384731744428
 Sym= A
 Ene=    0.3607233406
 Spin= Alpha
 Occup=    0.00000
   1     -0.18048173845426
   2       -4.898106023491
   3     -0.14463601481655
   4        2.530374062329
   5      0.18048173846634
   6       4.8981060235508
   7      0.14463601477524
   8      -2.5303740623924
 Sym= A
 Ene=    0.4113164802
 Spin= Alpha
 Occup=    0.00000
   1    0.0075083627811698
   2     -0.16954007921378
   3     -0.13231241305599
   4     -0.22914513636324
   5      0.29450326925884
   6      0.38305779167529
   7       0.2967064993891
   8      0.32603395153263
 Sym= A
 Ene=    0.7083981277
 Spin= Alpha
 Occup=    0.00000
   1     -0.54362112166317
   2      0.67460808166916
   3     -0.52987291664802
   4     0.069373449158672
   5     -0.54362112163487
   6      0.67460808102035
   7     -0.52987291655514
   8     0.069373449333841
 Sym= A
 Ene=     1.020117157
 Spin= Alpha
 Occup=    0.00000
   1      0.63825523991849
   2      -1.1141273102274
   3     -0.75528089416869
   4        1.330866089272
   5      0.63825524072529
   6      -1.1141273214275
   7     -0.75528089195234
   8       1.3308660916654
 Sym= A
 Ene=     1.033511021
 Spin= Alpha
 Occup=    0.00000
   1     -0.36130906145825
   2       4.3240297643932
   3      -0.7989066549174
   4      -0.9512488077904
   5       0.3613090598126
   6       -4.324029761501
   7      0.79890665700801
   8      0.95124880423484
 Sym= A
 Ene=     1.515905996
 Spin= Alpha
 Occup=    0.00000
   1       1.1275840107252
   2      -3.3078698277481
   3     -0.54193268094212
   4       1.4346197522907
   5      -1.1275840108171
   6       3.3078698278836
   7      0.54193268105555
   8      -1.4346197524546
