[Molden Format]
made by pyscf v[1.6]
[Atoms] (AU)
H   1   1     1.39839733217815     0.00000000000000     0.00000000000000
H   2   1     0.00000000000000     0.00000000000000     0.00000000000000
H   3   1     2.79679466435629     0.00000000000000     0.00000000000000
H   4   1     4.19519199653444     0.00000000000000     0.00000000000000
[GTO]
1 0
 s    2 1.00
              5.447178     0.1562849806701
              0.824547    0.90469088810453
 s    1 1.00
              0.183192                   1

2 0
 s    2 1.00
              5.447178     0.1562849806701
              0.824547    0.90469088810453
 s    1 1.00
              0.183192                   1

3 0
 s    2 1.00
              5.447178     0.1562849806701
              0.824547    0.90469088810453
 s    1 1.00
              0.183192                   1

4 0
 s    2 1.00
              5.447178     0.1562849806701
              0.824547    0.90469088810453
 s    1 1.00
              0.183192                   1

[5d]
[9g]


[MO]
 Sym= A
 Ene=   -0.6192455769
 Spin= Alpha
 Occup=    1.00000
   1      0.27501805126514
   2      0.19443405710633
   3       0.1497012804963
   4     0.088228575391341
   5      0.27501805040361
   6       0.1944340549717
   7      0.14970127937174
   8     0.088228574730729
 Sym= A
 Ene=   -0.3215731078
 Spin= Alpha
 Occup=    1.00000
   1       0.1716947771718
   2      0.33058964383613
   3       0.2566598553719
   4      0.33213579418795
   5     -0.17169477872028
   6     -0.33058964571167
   7     -0.25665985500021
   8     -0.33213579316433
 Sym= A
 Ene=   0.09370810091
 Spin= Alpha
 Occup=    0.00000
   1     -0.20376277594277
   2     -0.75637973006071
   3      0.16090339786217
   4        1.138476593348
   5     -0.20376277430678
   6     -0.75637971486325
   7      0.16090339772033
   8       1.1384765870778
 Sym= A
 Ene=    0.3607239549
 Spin= Alpha
 Occup=    0.00000
   1     -0.18048208779793
   2      -4.8980992265318
   3     -0.14463757310742
   4       2.5303727446362
   5      0.18048208852852
   6       4.8980992285984
   7      0.14463757177972
   8      -2.5303727470491
 Sym= A
 Ene=    0.7083981063
 Spin= Alpha
 Occup=    0.00000
   1     -0.54362213672757
   2      0.67461022816877
   3     -0.52987159612777
   4     0.069370921011127
   5     -0.54362213606362
   6      0.67461020720706
   7     -0.52987159241676
   8     0.069370926041408
 Sym= A
 Ene=     1.020123425
 Spin= Alpha
 Occup=    0.00000
   1      0.63825492534272
   2      -1.1141238560828
   3     -0.75528220983179
   4       1.3308632777294
   5      0.63825496139719
   6      -1.1141243500611
   7     -0.75528211305654
   8       1.3308633832432
 Sym= A
 Ene=     1.033513263
 Spin= Alpha
 Occup=    0.00000
   1     -0.36131515429601
   2       4.3240572210868
   3      -0.7989032832692
   4     -0.95126147539927
   5      0.36131508152279
   6      -4.3240570935065
   7      0.79890337465279
   8       0.9512613192868
 Sym= A
 Ene=     1.515915992
 Spin= Alpha
 Occup=    0.00000
   1        1.127581947696
   2      -3.3078442144099
   3     -0.54193725681429
   4        1.434613588452
   5      -1.1275819510799
   6       3.3078442194343
   7      0.54193726148446
   8      -1.4346135948381
