[Molden Format]
made by pyscf v[1.6]
[Atoms] (AU)
H   1   1     1.39839733217815     0.00000000000000     0.00000000000000
H   2   1     0.00000000000000     0.00000000000000     0.00000000000000
GHOST-H   3   0     2.79679466435629     0.00000000000000     0.00000000000000
GHOST-H   4   0     4.19519199653444     0.00000000000000     0.00000000000000
[GTO]
1 0
 s    2 1.00
              5.447178     0.1562849806701
              0.824547    0.90469088810453
 s    1 1.00
              0.183192                   1

2 0
 s    2 1.00
              5.447178     0.1562849806701
              0.824547    0.90469088810453
 s    1 1.00
              0.183192                   1

3 0
 s    2 1.00
              5.447178     0.1562849806701
              0.824547    0.90469088810453
 s    1 1.00
              0.183192                   1

4 0
 s    2 1.00
              5.447178     0.1562849806701
              0.824547    0.90469088810453
 s    1 1.00
              0.183192                   1

[5d]
[9g]


[MO]
 Sym= A
 Ene=   -0.4113166586
 Spin= Alpha
 Occup=    1.00000
   1     -0.29450353590186
   2     -0.38305678742875
   3     -0.29670661492931
   4     -0.32603416020358
   5    -0.0075079640692432
   6      0.16953872760529
   7      0.13231191879701
   8      0.22914581033313
 Sym= A
 Ene=   0.09370810133
 Spin= Alpha
 Occup=    0.00000
   1     -0.20376277717957
   2     -0.75637974505283
   3      0.16090339761534
   4       1.1384766004933
   5     -0.20376277300494
   6     -0.75637970238224
   7       0.1609033964972
   8       1.1384765814893
 Sym= A
 Ene=     0.360723955
 Spin= Alpha
 Occup=    0.00000
   1     -0.18048208699596
   2      -4.8980992253077
   3     -0.14463757453639
   4       2.5303727428879
   5      0.18048208841516
   6       4.8980992309003
   7      0.14463757038972
   8      -2.5303727500781
 Sym= A
 Ene=    0.5295020251
 Spin= Alpha
 Occup=    0.00000
   1      0.13557909902092
   2    -0.019016120987555
   3    -0.015809486411803
   4     -0.10862869379916
   5      0.32412598779983
   6      0.34402141962439
   7      0.26604193424017
   8      0.25610674176677
 Sym= A
 Ene=    0.7083981068
 Spin= Alpha
 Occup=    0.00000
   1     -0.54362213615345
   2      0.67461024485823
   3     -0.52987160062807
   4     0.069370918547246
   5     -0.54362213423159
   6      0.67461018720178
   7     -0.52987158992847
   8     0.069370933116881
 Sym= A
 Ene=     1.020123426
 Spin= Alpha
 Occup=    0.00000
   1      0.63825489221408
   2      -1.1141233892199
   3     -0.75528230063086
   4       1.3308631769758
   5      0.63825499666463
   6      -1.1141248178055
   7     -0.75528202075952
   8       1.3308634822099
 Sym= A
 Ene=     1.033513263
 Spin= Alpha
 Occup=    0.00000
   1     -0.36131522359947
   2       4.3240573431045
   3      -0.7989031968159
   4     -0.95126162352244
   5      0.36131501267654
   6      -4.3240569738411
   7      0.79890346069217
   8       0.9512611719919
 Sym= A
 Ene=     1.515915994
 Spin= Alpha
 Occup=    0.00000
   1       1.1275819445467
   2      -3.3078442071211
   3     -0.54193725258228
   4       1.4346135814296
   5      -1.1275819541353
   6       3.3078442215833
   7      0.54193726606355
   8      -1.4346135997704
