[Molden Format]
made by pyscf v[1.6]
[Atoms] (AU)
H   1   1     2.79679466435629     0.00000000000000     0.00000000000000
H   2   1     4.19519199653444     0.00000000000000     0.00000000000000
GHOST-H   3   0     1.39839733217815     0.00000000000000     0.00000000000000
GHOST-H   4   0     0.00000000000000     0.00000000000000     0.00000000000000
[GTO]
1 0
 s    2 1.00
              5.447178     0.1562849806701
              0.824547    0.90469088810453
 s    1 1.00
              0.183192                   1

2 0
 s    2 1.00
              5.447178     0.1562849806701
              0.824547    0.90469088810453
 s    1 1.00
              0.183192                   1

3 0
 s    2 1.00
              5.447178     0.1562849806701
              0.824547    0.90469088810453
 s    1 1.00
              0.183192                   1

4 0
 s    2 1.00
              5.447178     0.1562849806701
              0.824547    0.90469088810453
 s    1 1.00
              0.183192                   1

[5d]
[9g]


[MO]
 Sym= A
 Ene=   -0.5295020251
 Spin= Alpha
 Occup=    1.00000
   1      0.32412598692505
   2      0.34402141700763
   3      0.26604193286124
   4      0.25610674291128
   5      0.13557909939329
   6    -0.019016114265335
   7    -0.015809487018145
   8      -0.1086286985369
 Sym= A
 Ene=   0.09370810133
 Spin= Alpha
 Occup=    0.00000
   1      0.20376277243695
   2      0.75637970177917
   3      -0.1609033969634
   4       -1.138476581938
   5        0.203762776942
   6      0.75637974508639
   7     -0.16090339758764
   8       -1.138476600303
 Sym= A
 Ene=     0.360723955
 Spin= Alpha
 Occup=    0.00000
   1     -0.18048208887498
   2      -4.8980992313884
   3     -0.14463757076711
   4       2.5303727497148
   5      0.18048208680362
   6       4.8980992253346
   7      0.14463757455883
   8      -2.5303727427338
 Sym= A
 Ene=    0.4113166586
 Spin= Alpha
 Occup=    0.00000
   1    -0.0075079640692382
   2      0.16953872760532
   3      0.13231191879701
   4       0.2291458103331
   5     -0.29450353590185
   6     -0.38305678742877
   7     -0.29670661492932
   8     -0.32603416020357
 Sym= A
 Ene=    0.7083981068
 Spin= Alpha
 Occup=    0.00000
   1      0.54362213462679
   2      -0.6746101867821
   3      0.52987159025283
   4    -0.069370932804665
   5      0.54362213631877
   6      -0.6746102448816
   7      0.52987160060884
   8    -0.069370918679675
 Sym= A
 Ene=     1.020123426
 Spin= Alpha
 Occup=    0.00000
   1       0.6382549966372
   2      -1.1141248178389
   3     -0.75528202078148
   4       1.3308634821888
   5       0.6382548922022
   6      -1.1141233892143
   7     -0.75528230063029
   8       1.3308631769842
 Sym= A
 Ene=     1.033513263
 Spin= Alpha
 Occup=    0.00000
   1      0.36131501279517
   2      -4.3240569737135
   3      0.79890346079079
   4      0.95126117208483
   5     -0.36131522355016
   6       4.3240573430985
   7     -0.79890319682098
   8     -0.95126162356363
 Sym= A
 Ene=     1.515915994
 Spin= Alpha
 Occup=    0.00000
   1      -1.1275819542028
   2       3.3078442215119
   3      0.54193726600822
   4      -1.4346135998238
   5       1.1275819445184
   6      -3.3078442071172
   7     -0.54193725257894
   8       1.4346135814521
