[Molden Format]
made by pyscf v[1.6.3]
[Atoms] (AU)
H   1   1     1.39839733217815     0.00000000000000     0.00000000000000
H   2   1     0.00000000000000     0.00000000000000     0.00000000000000
H   3   1     2.79679466435629     0.00000000000000     0.00000000000000
H   4   1     4.19519199653444     0.00000000000000     0.00000000000000
[GTO]
1 0
 s    2 1.00
              5.447178     0.1562849806701
              0.824547    0.90469088810453
 s    1 1.00
              0.183192                   1

2 0
 s    2 1.00
              5.447178     0.1562849806701
              0.824547    0.90469088810453
 s    1 1.00
              0.183192                   1

3 0
 s    2 1.00
              5.447178     0.1562849806701
              0.824547    0.90469088810453
 s    1 1.00
              0.183192                   1

4 0
 s    2 1.00
              5.447178     0.1562849806701
              0.824547    0.90469088810453
 s    1 1.00
              0.183192                   1

[5d]
[9g]


[MO]
 Sym= A
 Ene=    -0.619245375
 Spin= Alpha
 Occup=    1.00000
   1      0.27501826477325
   2      0.19443380503861
   3      0.14970077818891
   4     0.088229031447354
   5      0.27501826476337
   6       0.1944338050145
   7      0.14970077817598
   8     0.088229031439548
 Sym= A
 Ene=   -0.3215730298
 Spin= Alpha
 Occup=    1.00000
   1      0.17169435453793
   2      0.33059100575038
   3      0.25666004373776
   4       0.3321352155568
   5     -0.17169435455575
   6     -0.33059100577236
   7     -0.25666004373354
   8     -0.33213521554441
 Sym= A
 Ene=   0.09370763257
 Spin= Alpha
 Occup=    0.00000
   1     -0.20376426357601
   2     -0.75637696006658
   3       0.1609054638359
   4       1.1384731745176
   5     -0.20376426355734
   6     -0.75637695988735
   7      0.16090546383455
   8       1.1384731744435
 Sym= A
 Ene=    0.3607233406
 Spin= Alpha
 Occup=    0.00000
   1     -0.18048173849742
   2       -4.898106023357
   3     -0.14463601477521
   4       2.5303740622966
   5      0.18048173850599
   6       4.8981060233811
   7      0.14463601475949
   8      -2.5303740623247
 Sym= A
 Ene=    0.7083981277
 Spin= Alpha
 Occup=    0.00000
   1     -0.54362112177117
   2      0.67460808171226
   3     -0.52987291647415
   4     0.069373448920244
   5     -0.54362112176413
   6      0.67460808147105
   7     -0.52987291643101
   8     0.069373448978048
 Sym= A
 Ene=     1.020117157
 Spin= Alpha
 Occup=    0.00000
   1      0.63825523997844
   2      -1.1141273128387
   3     -0.75528089373021
   4       1.3308660899241
   5      0.63825524040443
   6       -1.114127318647
   7     -0.75528089259517
   8       1.3308660911668
 Sym= A
 Ene=      1.03351102
 Spin= Alpha
 Occup=    0.00000
   1     -0.36130906111964
   2       4.3240297638695
   3     -0.79890665539967
   4     -0.95124880700607
   5      0.36130906026474
   6      -4.3240297623709
   7      0.79890665647216
   8      0.95124880517305
 Sym= A
 Ene=     1.515905996
 Spin= Alpha
 Occup=    0.00000
   1        1.127584010724
   2      -3.3078698277756
   3     -0.54193268102237
   4       1.4346197523866
   5      -1.1275840107619
   6       3.3078698278321
   7      0.54193268107556
   8       -1.434619752459
