[Molden Format]
made by pyscf v[1.6]
[Atoms] (AU)
H   1   1     1.39839733217815     0.00000000000000     0.00000000000000
H   2   1     0.00000000000000     0.00000000000000     0.00000000000000
H   3   1     2.79679466435629     0.00000000000000     0.00000000000000
H   4   1     4.19519199653444     0.00000000000000     0.00000000000000
[GTO]
1 0
 s    2 1.00
              5.447178     0.1562849806701
              0.824547    0.90469088810453
 s    1 1.00
              0.183192                   1

2 0
 s    2 1.00
              5.447178     0.1562849806701
              0.824547    0.90469088810453
 s    1 1.00
              0.183192                   1

3 0
 s    2 1.00
              5.447178     0.1562849806701
              0.824547    0.90469088810453
 s    1 1.00
              0.183192                   1

4 0
 s    2 1.00
              5.447178     0.1562849806701
              0.824547    0.90469088810453
 s    1 1.00
              0.183192                   1

[5d]
[9g]


[MO]
 Sym= A
 Ene=   -0.6192455769
 Spin= Alpha
 Occup=    1.00000
   1      0.27501805126514
   2      0.19443405710635
   3       0.1497012804963
   4     0.088228575391339
   5       0.2750180504036
   6      0.19443405497168
   7      0.14970127937174
   8     0.088228574730732
 Sym= A
 Ene=   -0.3215731078
 Spin= Alpha
 Occup=    1.00000
   1      0.17169477717179
   2      0.33058964383616
   3       0.2566598553719
   4      0.33213579418793
   5     -0.17169477872028
   6     -0.33058964571171
   7     -0.25665985500021
   8     -0.33213579316432
 Sym= A
 Ene=   0.09370810091
 Spin= Alpha
 Occup=    0.00000
   1     -0.20376277594278
   2     -0.75637973006114
   3      0.16090339786217
   4       1.1384765933482
   5     -0.20376277430677
   6     -0.75637971486281
   7      0.16090339772033
   8       1.1384765870776
 Sym= A
 Ene=    0.3607239549
 Spin= Alpha
 Occup=    0.00000
   1     -0.18048208779781
   2      -4.8980992265324
   3     -0.14463757310739
   4       2.5303727446363
   5      0.18048208852846
   6        4.898099228599
   7      0.14463757177965
   8      -2.5303727470493
 Sym= A
 Ene=    0.7083981063
 Spin= Alpha
 Occup=    0.00000
   1     -0.54362213672757
   2      0.67461022816886
   3      -0.5298715961278
   4     0.069370921011131
   5      -0.5436221360636
   6      0.67461020720693
   7     -0.52987159241675
   8     0.069370926041441
 Sym= A
 Ene=     1.020123425
 Spin= Alpha
 Occup=    0.00000
   1      0.63825492534293
   2      -1.1141238560848
   3     -0.75528220983144
   4       1.3308632777298
   5        0.638254961397
   6      -1.1141243500592
   7     -0.75528211305687
   8       1.3308633832428
 Sym= A
 Ene=     1.033513263
 Spin= Alpha
 Occup=    0.00000
   1     -0.36131515429585
   2       4.3240572210862
   3     -0.79890328326947
   4     -0.95126147539858
   5      0.36131508152323
   6      -4.3240570935069
   7      0.79890337465243
   8      0.95126131928732
 Sym= A
 Ene=     1.515915992
 Spin= Alpha
 Occup=    0.00000
   1        1.127581947696
   2      -3.3078442144091
   3     -0.54193725681436
   4       1.4346135884517
   5      -1.1275819510799
   6       3.3078442194336
   7      0.54193726148456
   8      -1.4346135948379
