[Molden Format]
made by pyscf v[1.6]
[Atoms] (AU)
H   1   1     1.39839733217815     0.00000000000000     0.00000000000000
H   2   1     0.00000000000000     0.00000000000000     0.00000000000000
H   3   1     2.79679466435629     0.00000000000000     0.00000000000000
H   4   1     4.19519199653444     0.00000000000000     0.00000000000000
[GTO]
1 0
 s    2 1.00
              5.447178     0.1562849806701
              0.824547    0.90469088810453
 s    1 1.00
              0.183192                   1

2 0
 s    2 1.00
              5.447178     0.1562849806701
              0.824547    0.90469088810453
 s    1 1.00
              0.183192                   1

3 0
 s    2 1.00
              5.447178     0.1562849806701
              0.824547    0.90469088810453
 s    1 1.00
              0.183192                   1

4 0
 s    2 1.00
              5.447178     0.1562849806701
              0.824547    0.90469088810453
 s    1 1.00
              0.183192                   1

[5d]
[9g]


[MO]
 Sym= A
 Ene=   -0.6192455769
 Spin= Alpha
 Occup=    1.00000
   1      0.27501805126514
   2      0.19443405710634
   3       0.1497012804963
   4     0.088228575391336
   5      0.27501805040361
   6      0.19443405497169
   7      0.14970127937174
   8     0.088228574730732
 Sym= A
 Ene=   -0.3215731078
 Spin= Alpha
 Occup=    1.00000
   1      0.17169477717179
   2      0.33058964383617
   3      0.25665985537189
   4      0.33213579418793
   5     -0.17169477872028
   6     -0.33058964571171
   7     -0.25665985500021
   8     -0.33213579316432
 Sym= A
 Ene=   0.09370810091
 Spin= Alpha
 Occup=    0.00000
   1     -0.20376277594278
   2     -0.75637973006106
   3      0.16090339786217
   4       1.1384765933482
   5     -0.20376277430678
   6     -0.75637971486289
   7      0.16090339772033
   8       1.1384765870776
 Sym= A
 Ene=    0.3607239549
 Spin= Alpha
 Occup=    0.00000
   1     -0.18048208779787
   2      -4.8980992265321
   3     -0.14463757310741
   4       2.5303727446362
   5      0.18048208852849
   6       4.8980992285988
   7      0.14463757177966
   8      -2.5303727470492
 Sym= A
 Ene=    0.7083981063
 Spin= Alpha
 Occup=    0.00000
   1     -0.54362213672756
   2      0.67461022816879
   3     -0.52987159612778
   4     0.069370921011127
   5     -0.54362213606361
   6        0.674610207207
   7     -0.52987159241677
   8     0.069370926041449
 Sym= A
 Ene=     1.020123425
 Spin= Alpha
 Occup=    0.00000
   1      0.63825492534295
   2      -1.1141238560854
   3      -0.7552822098313
   4       1.3308632777299
   5      0.63825496139698
   6      -1.1141243500585
   7     -0.75528211305701
   8       1.3308633832427
 Sym= A
 Ene=     1.033513263
 Spin= Alpha
 Occup=    0.00000
   1     -0.36131515429571
   2       4.3240572210861
   3     -0.79890328326963
   4     -0.95126147539842
   5      0.36131508152326
   6      -4.3240570935072
   7      0.79890337465231
   8      0.95126131928757
 Sym= A
 Ene=     1.515915992
 Spin= Alpha
 Occup=    0.00000
   1        1.127581947696
   2      -3.3078442144094
   3     -0.54193725681435
   4       1.4346135884519
   5      -1.1275819510799
   6       3.3078442194339
   7      0.54193726148451
   8       -1.434613594838
