[Molden Format]
made by pyscf v[1.6]
[Atoms] (AU)
H   1   1     2.79679466435629     0.00000000000000     0.00000000000000
H   2   1     4.19519199653444     0.00000000000000     0.00000000000000
GHOST-H   3   0     1.39839733217815     0.00000000000000     0.00000000000000
GHOST-H   4   0     0.00000000000000     0.00000000000000     0.00000000000000
[GTO]
1 0
 s    2 1.00
              5.447178     0.1562849806701
              0.824547    0.90469088810453
 s    1 1.00
              0.183192                   1

2 0
 s    2 1.00
              5.447178     0.1562849806701
              0.824547    0.90469088810453
 s    1 1.00
              0.183192                   1

3 0
 s    2 1.00
              5.447178     0.1562849806701
              0.824547    0.90469088810453
 s    1 1.00
              0.183192                   1

4 0
 s    2 1.00
              5.447178     0.1562849806701
              0.824547    0.90469088810453
 s    1 1.00
              0.183192                   1

[5d]
[9g]


[MO]
 Sym= A
 Ene=   -0.5295020251
 Spin= Alpha
 Occup=    1.00000
   1      0.32412598692506
   2      0.34402141700763
   3      0.26604193286125
   4      0.25610674291128
   5      0.13557909939329
   6    -0.019016114265349
   7    -0.015809487018142
   8     -0.10862869853689
 Sym= A
 Ene=   0.09370810133
 Spin= Alpha
 Occup=    0.00000
   1      0.20376277243696
   2      0.75637970177943
   3     -0.16090339696339
   4      -1.1384765819381
   5      0.20376277694198
   6      0.75637974508614
   7     -0.16090339758763
   8      -1.1384766003029
 Sym= A
 Ene=     0.360723955
 Spin= Alpha
 Occup=    0.00000
   1     -0.18048208887494
   2      -4.8980992313885
   3     -0.14463757076714
   4       2.5303727497149
   5      0.18048208680357
   6       4.8980992253349
   7       0.1446375745588
   8      -2.5303727427339
 Sym= A
 Ene=    0.4113166586
 Spin= Alpha
 Occup=    0.00000
   1    -0.0075079640692456
   2      0.16953872760527
   3      0.13231191879701
   4      0.22914581033314
   5     -0.29450353590185
   6     -0.38305678742873
   7     -0.29670661492931
   8     -0.32603416020359
 Sym= A
 Ene=    0.7083981068
 Spin= Alpha
 Occup=    0.00000
   1      0.54362213462678
   2      -0.6746101867823
   3      0.52987159025283
   4    -0.069370932804557
   5      0.54362213631881
   6     -0.67461024488144
   7      0.52987160060881
   8    -0.069370918679732
 Sym= A
 Ene=     1.020123426
 Spin= Alpha
 Occup=    0.00000
   1      0.63825499663668
   2      -1.1141248178323
   3     -0.75528202078273
   4       1.3308634821874
   5       0.6382548922027
   6      -1.1141233892209
   7     -0.75528230062905
   8       1.3308631769857
 Sym= A
 Ene=     1.033513263
 Spin= Alpha
 Occup=    0.00000
   1      0.36131501279622
   2      -4.3240569737153
   3      0.79890346078959
   4      0.95126117208691
   5     -0.36131522354926
   6       4.3240573430969
   7     -0.79890319682212
   8     -0.95126162356163
 Sym= A
 Ene=     1.515915994
 Spin= Alpha
 Occup=    0.00000
   1      -1.1275819542028
   2       3.3078442215114
   3      0.54193726600823
   4      -1.4346135998236
   5       1.1275819445184
   6      -3.3078442071167
   7     -0.54193725257903
   8        1.434613581452
