[Molden Format]
made by pyscf v[1.6.3]
[Atoms] (AU)
H   1   1     1.39839733217815     0.00000000000000     0.00000000000000
H   2   1     0.00000000000000     0.00000000000000     0.00000000000000
GHOST-H   3   0     2.79679466435629     0.00000000000000     0.00000000000000
GHOST-H   4   0     4.19519199653444     0.00000000000000     0.00000000000000
[GTO]
1 0
 s    2 1.00
              5.447178     0.1562849806701
              0.824547    0.90469088810453
 s    1 1.00
              0.183192                   1

2 0
 s    2 1.00
              5.447178     0.1562849806701
              0.824547    0.90469088810453
 s    1 1.00
              0.183192                   1

3 0
 s    2 1.00
              5.447178     0.1562849806701
              0.824547    0.90469088810453
 s    1 1.00
              0.183192                   1

4 0
 s    2 1.00
              5.447178     0.1562849806701
              0.824547    0.90469088810453
 s    1 1.00
              0.183192                   1

[5d]
[9g]


[MO]
 Sym= A
 Ene=   -0.4113164802
 Spin= Alpha
 Occup=    1.00000
   1      0.29450326925884
   2      0.38305779167532
   3      0.29670649938911
   4      0.32603395153261
   5     0.007508362781169
   6      -0.1695400792138
   7     -0.13231241305599
   8     -0.22914513636323
 Sym= A
 Ene=   0.09370763262
 Spin= Alpha
 Occup=    0.00000
   1     -0.20376426349592
   2     -0.75637695990719
   3      0.16090546377136
   4       1.1384731744153
   5     -0.20376426346705
   6     -0.75637696016615
   7      0.16090546387703
   8       1.1384731747175
 Sym= A
 Ene=    0.3607233406
 Spin= Alpha
 Occup=    0.00000
   1      0.18048173847227
   2       4.8981060235499
   3      0.14463601477456
   4      -2.5303740623971
   5     -0.18048173844014
   6      -4.8981060234758
   7     -0.14463601480495
   8       2.5303740623401
 Sym= A
 Ene=    0.5295019245
 Spin= Alpha
 Occup=    0.00000
   1      0.13557957708395
   2    -0.019016986671255
   3    -0.015809942397553
   4     -0.10862792426752
   5      0.32412593525661
   6      0.34402191686514
   7      0.26604158758443
   8      0.25610675465889
 Sym= A
 Ene=    0.7083981277
 Spin= Alpha
 Occup=    0.00000
   1     -0.54362112163286
   2      0.67460808102008
   3     -0.52987291655537
   4     0.069373449332222
   5     -0.54362112165836
   6      0.67460808167425
   7     -0.52987291664407
   8     0.069373449162481
 Sym= A
 Ene=     1.020117157
 Spin= Alpha
 Occup=    0.00000
   1      0.63825524070961
   2      -1.1141273214251
   3     -0.75528089195056
   4       1.3308660916779
   5      0.63825523988107
   6      -1.1141273102674
   7     -0.75528089419937
   8       1.3308660892424
 Sym= A
 Ene=     1.033511021
 Spin= Alpha
 Occup=    0.00000
   1      0.36130905980998
   2      -4.3240297615007
   3      0.79890665700828
   4      0.95124880423704
   5     -0.36130906146447
   6       4.3240297643865
   7      -0.7989066549226
   8     -0.95124880779531
 Sym= A
 Ene=     1.515905996
 Spin= Alpha
 Occup=    0.00000
   1      -1.1275840108205
   2       3.3078698278842
   3      0.54193268105593
   4      -1.4346197524519
   5        1.127584010717
   6       -3.307869827757
   7     -0.54193268094888
   8       1.4346197522842
