[Molden Format]
made by pyscf v[1.6]
[Atoms] (AU)
H   1   1     2.79679466435629     0.00000000000000     0.00000000000000
H   2   1     4.19519199653444     0.00000000000000     0.00000000000000
GHOST-H   3   0     1.39839733217815     0.00000000000000     0.00000000000000
GHOST-H   4   0     0.00000000000000     0.00000000000000     0.00000000000000
[GTO]
1 0
 s    2 1.00
              5.447178     0.1562849806701
              0.824547    0.90469088810453
 s    1 1.00
              0.183192                   1

2 0
 s    2 1.00
              5.447178     0.1562849806701
              0.824547    0.90469088810453
 s    1 1.00
              0.183192                   1

3 0
 s    2 1.00
              5.447178     0.1562849806701
              0.824547    0.90469088810453
 s    1 1.00
              0.183192                   1

4 0
 s    2 1.00
              5.447178     0.1562849806701
              0.824547    0.90469088810453
 s    1 1.00
              0.183192                   1

[5d]
[9g]


[MO]
 Sym= A
 Ene=   -0.5295020251
 Spin= Alpha
 Occup=    1.00000
   1      0.32412598692506
   2      0.34402141700763
   3      0.26604193286125
   4      0.25610674291128
   5      0.13557909939329
   6    -0.019016114265346
   7    -0.015809487018142
   8     -0.10862869853689
 Sym= A
 Ene=   0.09370810133
 Spin= Alpha
 Occup=    0.00000
   1      0.20376277243696
   2      0.75637970177953
   3     -0.16090339696339
   4      -1.1384765819381
   5      0.20376277694199
   6      0.75637974508602
   7     -0.16090339758764
   8      -1.1384766003028
 Sym= A
 Ene=     0.360723955
 Spin= Alpha
 Occup=    0.00000
   1     -0.18048208887499
   2      -4.8980992313881
   3     -0.14463757076719
   4       2.5303727497147
   5      0.18048208680367
   6       4.8980992253344
   7      0.14463757455882
   8      -2.5303727427338
 Sym= A
 Ene=    0.4113166586
 Spin= Alpha
 Occup=    0.00000
   1    -0.0075079640692442
   2      0.16953872760529
   3      0.13231191879701
   4      0.22914581033313
   5     -0.29450353590185
   6     -0.38305678742875
   7     -0.29670661492931
   8     -0.32603416020359
 Sym= A
 Ene=    0.7083981068
 Spin= Alpha
 Occup=    0.00000
   1      0.54362213462679
   2     -0.67461018678229
   3      0.52987159025284
   4    -0.069370932804581
   5      0.54362213631879
   6     -0.67461024488144
   7      0.52987160060881
   8    -0.069370918679714
 Sym= A
 Ene=     1.020123426
 Spin= Alpha
 Occup=    0.00000
   1      0.63825499663704
   2      -1.1141248178362
   3     -0.75528202078202
   4       1.3308634821882
   5      0.63825489220235
   6       -1.114123389217
   7     -0.75528230062976
   8       1.3308631769848
 Sym= A
 Ene=     1.033513263
 Spin= Alpha
 Occup=    0.00000
   1      0.36131501279554
   2      -4.3240569737144
   3       0.7989034607903
   4      0.95126117208576
   5     -0.36131522354975
   6        4.324057343098
   7     -0.79890319682147
   8      -0.9512616235629
 Sym= A
 Ene=     1.515915994
 Spin= Alpha
 Occup=    0.00000
   1      -1.1275819542028
   2       3.3078442215119
   3      0.54193726600816
   4      -1.4346135998237
   5       1.1275819445185
   6      -3.3078442071173
   7     -0.54193725257898
   8       1.4346135814522
