[Molden Format]
made by pyscf v[1.5.2]
[Atoms] (AU)
C   1   6     0.00000000000000    -1.07506519226506     0.00000000000000
H   2   1     0.00000000000000    -2.30225333755761     1.66749433231621
H   3   1     0.00000000000000    -2.30225333755761    -1.66749433231621
C   4   6    -2.37557471119074     0.53743810982630     0.00000000000000
C   5   6     2.37557471119074     0.53762708243876     0.00000000000000
H   6   1    -2.45078581094843     1.74686282954794     1.67675399032658
H   7   1    -2.45040786572352     1.74705180216040    -1.67656501771412
H   8   1    -4.05818685250347    -0.66518359584690    -0.00018897261246
H   9   1     4.05818685250347    -0.66518359584690     0.00000000000000
H   10   1     2.45059683833597     1.74705180216040     1.67656501771412
H   11   1     2.45059683833597     1.74705180216040    -1.67656501771412
[GTO]
1 0
 s    6 1.00
             3047.5249  0.0018347001629433
             457.36951    0.01403730124668
             103.94869   0.068842606114048
             29.210155    0.23218442062076
              9.286663    0.46794134155879
              3.163927    0.36231203217765
 s    3 1.00
             7.8682724   -0.11933240861517
             1.8812885   -0.16085421161283
             0.5442493     1.1434564825515
 s    1 1.00
             0.1687144                   1
 p    3 1.00
             7.8682724   0.068999095584993
             1.8812885    0.31642397975315
             0.5442493    0.74430825237435
 p    1 1.00
             0.1687144                   1

2 0
 s    3 1.00
             18.731137    0.03349459952309
             2.8253937    0.23472694665786
             0.6401217    0.81375731841339
 s    1 1.00
             0.1612778                   1

3 0
 s    3 1.00
             18.731137    0.03349459952309
             2.8253937    0.23472694665786
             0.6401217    0.81375731841339
 s    1 1.00
             0.1612778                   1

4 0
 s    6 1.00
             3047.5249  0.0018347001629433
             457.36951    0.01403730124668
             103.94869   0.068842606114048
             29.210155    0.23218442062076
              9.286663    0.46794134155879
              3.163927    0.36231203217765
 s    3 1.00
             7.8682724   -0.11933240861517
             1.8812885   -0.16085421161283
             0.5442493     1.1434564825515
 s    1 1.00
             0.1687144                   1
 p    3 1.00
             7.8682724   0.068999095584993
             1.8812885    0.31642397975315
             0.5442493    0.74430825237435
 p    1 1.00
             0.1687144                   1

5 0
 s    6 1.00
             3047.5249  0.0018347001629433
             457.36951    0.01403730124668
             103.94869   0.068842606114048
             29.210155    0.23218442062076
              9.286663    0.46794134155879
              3.163927    0.36231203217765
 s    3 1.00
             7.8682724   -0.11933240861517
             1.8812885   -0.16085421161283
             0.5442493     1.1434564825515
 s    1 1.00
             0.1687144                   1
 p    3 1.00
             7.8682724   0.068999095584993
             1.8812885    0.31642397975315
             0.5442493    0.74430825237435
 p    1 1.00
             0.1687144                   1

6 0
 s    3 1.00
             18.731137    0.03349459952309
             2.8253937    0.23472694665786
             0.6401217    0.81375731841339
 s    1 1.00
             0.1612778                   1

7 0
 s    3 1.00
             18.731137    0.03349459952309
             2.8253937    0.23472694665786
             0.6401217    0.81375731841339
 s    1 1.00
             0.1612778                   1

8 0
 s    3 1.00
             18.731137    0.03349459952309
             2.8253937    0.23472694665786
             0.6401217    0.81375731841339
 s    1 1.00
             0.1612778                   1

9 0
 s    3 1.00
             18.731137    0.03349459952309
             2.8253937    0.23472694665786
             0.6401217    0.81375731841339
 s    1 1.00
             0.1612778                   1

10 0
 s    3 1.00
             18.731137    0.03349459952309
             2.8253937    0.23472694665786
             0.6401217    0.81375731841339
 s    1 1.00
             0.1612778                   1

11 0
 s    3 1.00
             18.731137    0.03349459952309
             2.8253937    0.23472694665786
             0.6401217    0.81375731841339
 s    1 1.00
             0.1612778                   1

[5d]
[9g]


[MO]
 Sym= A
 Ene=               0
 Spin= Alpha
 Occup=    1.00000
   1       1.0172338443312
   2     -0.30034185706213
   3      0.27744033614735
   4    1.5936135592497e-07
   5    -0.00067653690997392
   6    -3.3362026520901e-07
   7    -3.7996967434122e-06
   8    0.0078055967597513
   9    3.0253259252129e-07
  10      0.00727099424972
  11    -0.041854195085566
  12     0.007270953153884
  13    -0.041853905538588
  14    -0.00096027491858971
  15    0.0071091715641694
  16    -0.051785131267381
  17    0.0044820496822894
  18    -0.0039475883224976
  19    -1.2525768093189e-07
  20    -0.022273667203048
  21     0.017007790793981
  22    -9.5854470005633e-08
  23    -0.00096014249442926
  24    0.0071066293935265
  25    -0.051776251040844
  26    -0.0044795355580453
  27    -0.0039467578405801
  28    -8.4766650072978e-09
  29     0.022269759779093
  30     0.017007728475111
  31    -1.2072996588048e-08
  32     0.001040100095708
  33    -0.0025767053189873
  34    0.0010393744395932
  35    -0.0025766476983539
  36    0.0014016648212105
  37    -0.00091295826911297
  38    0.0014014131275014
  39    -0.0009127253152656
  40    0.0010398317873192
  41    -0.0025771408766944
  42     0.001039835114684
  43    -0.0025770743979488
 Sym= A
 Ene=               1
 Spin= Alpha
 Occup=    1.00000
   1    -0.0014579556509443
   2    0.0037103094782489
   3    -0.026611391195373
   4    -0.0052524360496233
   5    0.0041786149256412
   6    2.1544509880348e-07
   7     0.021197941875649
   8    -0.0091088839466826
   9    -1.851810119142e-06
  10    -0.00011235502445039
  11    -0.0029067983311347
  12    -0.00011281514472397
  13    -0.0029079336934837
  14       1.0180808736191
  15     -0.29418627578159
  16      0.24443805731797
  17    -0.0023493902882879
  18    -0.0021543045473592
  19    9.0487981242401e-07
  20    0.0053835061436311
  21    0.0033836119070389
  22    -1.4876690235334e-07
  23    0.00082402130203556
  24    0.0071441043804271
  25    -0.020689868329829
  26    -0.0011337678308926
  27    0.00062936083458188
  28    -4.3434440311547e-08
  29     0.012416991333771
  30    -0.004674619511907
  31    9.7601489475448e-07
  32    0.0095106775336515
  33    -0.041953874325407
  34    0.0095131517305613
  35      -0.0419569171547
  36     0.010530716100446
  37    -0.038325894055751
  38    -0.00031253320697329
  39    -0.0052343470178613
  40    0.0022651688876557
  41     0.004144096358558
  42    0.0022649908257259
  43    0.0041463051229542
 Sym= A
 Ene=               2
 Spin= Alpha
 Occup=    1.00000
   1    -0.0014578293369824
   2    0.0037076703343412
   3    -0.026604137895219
   4    0.0052498265816457
   5    0.0041773728628824
   6    -1.4157030857106e-07
   7    -0.021195478974708
   8    -0.0091066865372268
   9    1.1833761034282e-06
  10    -0.00011233202626314
  11     -0.00290702469182
  12    -0.00011209743062167
  13    -0.0029062095186554
  14    0.00082403378604147
  15    0.0071443800316245
  16    -0.020689880893925
  17    0.0011338471776277
  18    0.00062958456331866
  19    2.7879629472644e-07
  20    -0.012419369509163
  21    -0.0046750896304933
  22    -1.3052907431245e-06
  23       1.0180808639027
  24     -0.29418734119637
  25      0.24443905931091
  26    0.0023499632359588
  27    -0.0021537389067207
  28    7.6530101002527e-07
  29    -0.0053826643753283
  30    0.0033845368240075
  31    -6.7425557044633e-07
  32     0.002265106089917
  33    0.0041446828765254
  34    0.0022652887813382
  35    0.0041443715189193
  36    -0.00031277272954228
  37    -0.0052354970635746
  38     0.010526619000268
  39    -0.038320923169461
  40    0.0095169883539635
  41    -0.041961552666517
  42    0.0095171385992867
  43    -0.041962331134901
 Sym= A
 Ene=               3
 Spin= Alpha
 Occup=    1.00000
   1     -0.01091456901222
   2      0.74360244442264
   3     -0.53763766471003
   4    -1.1975829212722e-05
   5      0.60103961656152
   6     -0.87473245608278
   7    1.3808621572849e-05
   8      -0.3085393099983
   9      0.47616422111153
  10      0.12396458615223
  11     -0.24713354695612
  12    -0.063828766107803
  13       0.1912628323463
  14    0.0035674334361602
  15    -0.053559543239485
  16      0.19041835180369
  17    -0.040913835855211
  18     0.026716252900931
  19    0.0053010494546376
  20     0.092933285923434
  21     -0.04622120180466
  22    -0.056099001719846
  23    0.0035672056529257
  24    -0.053551571553689
  25      0.19040796244429
  26     0.040901839232439
  27     0.026713846768494
  28    0.0052980226285202
  29    -0.092922877658013
  30    -0.046216993623689
  31    -0.056103140440264
  32    0.0001715642136707
  33     0.010292466965578
  34    -0.00033782690873753
  35     0.013349573898075
  36    -0.0033491784707454
  37    -0.0015523620561584
  38    -0.0033485719399713
  39    -0.001553992100544
  40    0.00017200290205795
  41     0.010291602249503
  42    -0.00034527577275546
  43      0.01334051505066
 Sym= A
 Ene=               4
 Spin= Alpha
 Occup=    1.00000
   1    -0.004222752265766
   2     0.068356886753927
   3    -0.092705816893102
   4     0.069361197347234
   5     0.046733693923651
   6    -3.8907368581104e-07
   7    -0.091161969831747
   8    -0.042960935154966
   9    2.5353400780136e-06
  10    -0.0047594774634238
  11    -0.019650480416121
  12    -0.0047589627170255
  13    -0.019648497977618
  14     0.001759206252729
  15    0.0093397083333009
  16    -0.037104166356955
  17    -0.00014705352929358
  18    0.00047078858425381
  19    5.6454054598216e-07
  20    -0.038521410022357
  21    0.0078910826135446
  22    -4.2819546756647e-06
  23    -0.018916645464957
  24      0.72911453027138
  25     -0.40860966130035
  26      0.87271610965872
  27      0.55565250562465
  28    -4.8434288712382e-06
  29      -0.3604693415994
  30     -0.21745607839725
  31    1.4077372308742e-06
  32    0.0067839389489865
  33     -0.01083095344011
  34    0.0067847416399555
  35    -0.010838032390873
  36    -0.0014433911847018
  37    -0.013048469544214
  38    -0.099244520924436
  39      0.16911956851558
  40     -0.10023077866577
  41      0.15912836175969
  42     -0.10023269978754
  43       0.1591319320761
 Sym= A
 Ene=               5
 Spin= Alpha
 Occup=    1.00000
   1    -0.017982687496158
   2       0.7223100240855
   3     -0.39472443313164
   4      0.83962097961225
   5     -0.60938813377182
   6    -2.1084225402894e-05
   7     -0.39020545807076
   8       0.2909657229692
   9    1.295934946154e-05
  10    -0.090510489637764
  11      0.16762566964741
  12    -0.090514719152139
  13      0.16763837055739
  14    -0.0024363169052041
  15     0.083250890007039
  16     -0.18846467800208
  17     0.065878623211603
  18    -0.047710811541327
  19    -8.7241233631234e-07
  20    -0.093523110515697
  21      0.07423156544966
  22    -6.2551383953595e-07
  23    0.0045319388442454
  24    -0.053923635618922
  25      0.12980116243817
  26     0.045193420697812
  27     0.039102210932647
  28    1.1918978627627e-07
  29    -0.047497763237529
  30    -0.081641130256312
  31    -1.5463470564329e-06
  32    -0.0013651519831956
  33     -0.01953216874473
  34    -0.0013681432723849
  35    -0.019530271043932
  36    0.00087269131336477
  37    -0.013236990289146
  38     0.003714587000708
  39     0.021769541903396
  40    0.00043012729057133
  41    0.0064732387885928
  42    0.00042977202823133
  43    0.0064742688280128
 Sym= A
 Ene=               6
 Spin= Alpha
 Occup=    1.00000
   1    -0.010914481168854
   2      0.74360097521534
   3      -0.5376333549683
   4    -7.2726254456911e-06
   5      0.60098514962148
   6      0.87477111631484
   7    5.4236679990477e-06
   8     -0.30851289683745
   9      -0.4761833636443
  10    -0.063837850907873
  11      0.19128167526172
  12      0.12396391958668
  13     -0.24713397310476
  14    0.0035665570426068
  15    -0.053562412263008
  16      0.19042512907005
  17    -0.040912766330807
  18     0.026713197272397
  19    -0.0052983257922023
  20     0.092935429430851
  21    -0.046202592072096
  22     0.056095139511411
  23    0.0035672995185617
  24    -0.053546681085389
  25      0.19039662499246
  26     0.040899226456437
  27     0.026712997087489
  28    -0.0052979750304127
  29    -0.092915313782329
  30    -0.046220459627477
  31     0.056104684966108
  32    -0.00034634076814007
  33     0.013342135725643
  34    0.00017028301295998
  35     0.010277000473638
  36    -0.0033487742345865
  37    -0.0015441761180343
  38    -0.0033488632031472
  39    -0.0015551163449914
  40    -0.00034474850918038
  41     0.013342591786655
  42    0.00017259322874932
  43      0.01029213232531
 Sym= A
 Ene=               7
 Spin= Alpha
 Occup=    1.00000
   1    0.0031610427736606
   2     0.011493435767809
   3    -0.090106510011474
   4     0.010116798348239
   5    -0.00031716219374244
   6    5.4063649876923e-07
   7     0.048080380212704
   8    -0.018783052630159
   9    3.2134202757138e-07
  10    0.0097390463856925
  11    -0.0066136372676458
  12     0.009739580225151
  13    -0.0066162288332782
  14    -0.0075724181248702
  15       0.1206500462759
  16     0.053174300589757
  17     -0.14410286183335
  18     -0.10191903916346
  19    -1.6181549425415e-05
  20     0.075935066776103
  21     0.020757130280145
  22    3.4317475855303e-06
  23    0.00018060617066639
  24    0.00021821348611517
  25    -0.0026440005015915
  26    -0.00042158321583464
  27    0.0010761724005773
  28    4.7725949315587e-08
  29    0.0023934755291724
  30    -0.0015645833911836
  31    -4.9539144859815e-07
  32    -0.022470216163721
  33    -0.029713012464716
  34     -0.02246933575051
  35    -0.029716270657237
  36      -1.2302130023745
  37       0.3382677349093
  38    -0.00039343780121166
  39    -0.0042328955750158
  40    0.00014966376772847
  41     0.001033178248563
  42    0.00014907569235056
  43    0.0010345334235312
 Sym= A
 Ene=               8
 Spin= Alpha
 Occup=    1.00000
   1    -0.017982944073838
   2      0.72233161979403
   3      -0.3947998557459
   4     -0.83959988411618
   5     -0.60941083341673
   6    -1.8013293793572e-05
   7      0.39020383088177
   8      0.29097384916968
   9    9.7478587994659e-06
  10    -0.090510542167936
  11      0.16763350120008
  12    -0.090514395574311
  13      0.16764309822813
  14    0.0045311826426752
  15    -0.053947470038945
  16       0.1298589917118
  17    -0.045205636448814
  18     0.039110819256235
  19    -4.6180955639148e-07
  20     0.047509498587001
  21    -0.081655955860966
  22    3.2752375348853e-06
  23    -0.0024378824379839
  24      0.08322954017062
  25     -0.18842093623984
  26     -0.06586495985228
  27     -0.04770747472388
  28    8.1441268211355e-08
  29     0.093507780410192
  30     0.074229196831124
  31    -1.2438864223296e-06
  32    0.00042801389301234
  33    0.0064683205909646
  34    0.00042923538803292
  35    0.0064720453254089
  36     0.003710622754416
  37      0.02175918315294
  38    0.00087040742228852
  39     -0.01323801657477
  40    -0.0013671367738576
  41    -0.019534477127331
  42    -0.0013670955612001
  43    -0.019534673028609
 Sym= A
 Ene=               9
 Spin= Alpha
 Occup=    1.00000
   1    -0.0026028330442487
   2    -0.007963390940783
   3      0.06726044514105
   4    0.0082150076145191
   5    0.0063909468038068
   6    -0.004098957962285
   7     0.031104774907474
   8     0.022526661715736
   9    -0.014020710353383
  10    0.00074462206674861
  11    0.0055300345043693
  12    -0.0089821290889222
  13    0.0039762365578034
  14    -0.00098018310367507
  15    -0.013431160215605
  16    0.0079643145772281
  17    -0.0088548144581429
  18    -0.0018705059170289
  19    -0.00047369762984005
  20     0.029497422247113
  21     0.012170325862769
  22     0.010868950601756
  23     0.007735525616296
  24     -0.11786654524058
  25    -0.043202194510734
  26    -0.0094854961136097
  27     -0.10243139947351
  28      0.14240114291531
  29     0.030191347822197
  30     0.043831263284374
  31    -0.051861409959183
  32    -0.0042745230769131
  33    -0.0095464266211887
  34    -0.0064478363147686
  35     0.018237796493161
  36    0.0026011001619144
  37     0.016705520253157
  38     0.020387084541685
  39     0.025878622090511
  40     0.023242700354528
  41     0.031154027188317
  42       1.2331534790197
  43     -0.34323119619224
 Sym= A
 Ene=              10
 Spin= Alpha
 Occup=    1.00000
   1     0.010699795184752
   2    -0.088044468670839
   3     -0.16517359889437
   4    5.8556111470506e-07
   5       0.1046406809833
   6      0.13725742253448
   7    7.7479232217348e-06
   8     -0.06404706077135
   9    -0.022983055667175
  10     0.028044316227928
  11     0.028059671811771
  12       1.2422450773262
  13     -0.32239845618895
  14    -0.0033156927210253
  15    -0.010010929091767
  16      0.10638533561277
  17      0.01015909317082
  18    -0.0080473804508872
  19    -0.0044082783864447
  20     0.037475825838429
  21    -0.038869185042355
  22    -0.019968667738837
  23    -0.0033158718678755
  24    -0.010016673883413
  25      0.10637864611517
  26    -0.010156953883443
  27    -0.0080446938133378
  28    -0.0044066942247365
  29    -0.037470725430478
  30    -0.038870449963341
  31    -0.019971965421989
  32    0.0003134662653075
  33    0.0076635266707995
  34    -0.010373042144538
  35     0.002143136454304
  36    -0.011425087649338
  37    0.0018519039237813
  38    -0.011425481482883
  39    0.0018502265609738
  40    0.00031337631042731
  41    0.0076655250973178
  42    -0.010374084034443
  43    0.0021397851007645
 Sym= A
 Ene=              11
 Spin= Alpha
 Occup=    1.00000
   1    0.0071909164686518
   2    -0.022901658172064
   3     0.015128692536922
   4     0.030178452272592
   5    -0.033113570263384
   6    -3.5049334622314e-06
   7    -0.031684147427968
   8     0.025135866276459
   9    2.5439996154146e-05
  10    0.0051186586642656
  11    -0.00017385219690386
  12    0.0051226800869624
  13    -0.0001582995492565
  14    -0.011706566911661
  15      0.74303926239425
  16     -0.42499452304888
  17      0.83741433847882
  18       0.6603745580199
  19    9.6920699983424e-05
  20     -0.39677194633316
  21     -0.35616545960522
  22    -5.3456219340148e-05
  23    -0.0065034463938624
  24    -0.048318188810042
  25      0.13958240056607
  26    0.0042031384490325
  27     -0.00537332727301
  28    3.7614363400971e-07
  29     -0.11843927538093
  30     0.052684521883792
  31    -9.7865770026756e-06
  32    -0.075655692906049
  33      0.18069106114119
  34    -0.075676195663794
  35      0.18070759772282
  36      0.12062428802041
  37     -0.24433826550399
  38     0.005958582570044
  39      0.04750123860391
  40    -0.021026356954207
  41    -0.016622234084027
  42    -0.021025234836796
  43    -0.016640093133207
 Sym= A
 Ene=              12
 Spin= Alpha
 Occup=    1.00000
   1     0.010699764465777
   2    -0.088044987687544
   3     -0.16517142393005
   4    5.5565488620115e-07
   5      0.10464025537295
   6     -0.13725805792135
   7    8.4175350805764e-06
   8    -0.064045301142478
   9     0.022985637473357
  10       1.2422447284261
  11     -0.32239868293056
  12     0.028044504706227
  13     0.028060729175545
  14    -0.0033157643190596
  15    -0.010011946422009
  16      0.10638775715265
  17     0.010159246745029
  18    -0.0080475610905426
  19    0.0044085144615438
  20     0.037471929950214
  21    -0.038870215804862
  22     0.019964506207067
  23     -0.00331585987784
  24    -0.010016559105824
  25      0.10637724371169
  26    -0.010156933264136
  27    -0.0080446524123489
  28    0.0044067000827391
  29    -0.037470210420003
  30    -0.038869975056946
  31     0.019971233806516
  32    -0.010373447966863
  33    0.0021451168485726
  34    0.00031285402646763
  35     0.007661201781107
  36    -0.011424842075135
  37    0.0018486318746939
  38    -0.011425399032496
  39     0.001850300350685
  40    -0.010373914747922
  41    0.0021398952618853
  42    0.00031333511002658
  43    0.0076652399701153
 Sym= A
 Ene=              13
 Spin= Alpha
 Occup=    0.00000
   1     0.059041127700532
   2      0.64897312493371
   3      -2.5613653177342
   4    -1.0840557093685e-06
   5    -0.040508696745603
   6    -0.077075251570783
   7    2.8136983067905e-05
   8      0.58607294836018
   9      0.83160751252792
  10       0.1315796887313
  11     0.060318687949892
  12     -0.44171316933996
  13       2.7716724126325
  14    0.0021686683325743
  15     0.063595479032333
  16      0.23089971114682
  17     0.047181170460481
  18    -0.061762048560891
  19    -0.043623957705787
  20     0.030412174429908
  21     0.025088078154765
  22     0.080371647852946
  23    0.0021648914174378
  24     0.063562270816431
  25      0.23092974502047
  26    -0.047169821949185
  27      -0.0617640858079
  28    -0.043615027355406
  29    -0.030444357646808
  30     0.025129157354339
  31     0.080332316354895
  32    -0.018042566473016
  33     -0.12992492681831
  34     0.011253034671541
  35    -0.011156273355919
  36     0.011675741870819
  37    -0.026536900118585
  38     0.011677944038005
  39    -0.026508677061811
  40     -0.01804367675458
  41     -0.12994141450046
  42     0.011238700524253
  43     -0.01119361676807
 Sym= A
 Ene=              14
 Spin= Alpha
 Occup=    0.00000
   1    -0.059041858753307
   2     -0.64897920837802
   3       2.5613987936551
   4    -3.4432018806558e-06
   5      0.04050992933412
   6    -0.077078608086014
   7    -1.3541101652078e-05
   8     -0.58604726417121
   9      0.83163467071926
  10      0.44171016415453
  11      -2.7716797940369
  12     -0.13157608144481
  13    -0.060309837111598
  14    -0.0021670308053427
  15    -0.063580565516933
  16     -0.23095337908026
  17    -0.047170367224178
  18     0.061772996007574
  19    -0.043619690921647
  20    -0.030486713831777
  21    -0.025163641407299
  22     0.080343429447516
  23    -0.0021656287309555
  24    -0.063572270536646
  25     -0.23092691075911
  26     0.047174453699711
  27     0.061763351263246
  28    -0.043615038172032
  29     0.030434554392677
  30     -0.02511035448623
  31     0.080323580479763
  32    -0.011243074400981
  33     0.011207519399146
  34     0.018050283296164
  35      0.12995524197118
  36    -0.011675993280768
  37     0.026475394030831
  38    -0.011676515107334
  39     0.026518003123861
  40    -0.011240539648197
  41     0.011190202066445
  42     0.018041855523602
  43      0.12992705169869
 Sym= A
 Ene=              15
 Spin= Alpha
 Occup=    0.00000
   1    -0.0016302057505247
   2    -0.052376192149275
   3     -0.21226798925861
   4     0.045804831801951
   5    -0.057082526000751
   6     0.035921795026781
   7     0.048275981600095
   8     0.039462184862637
   9     -0.04533084270119
  10     0.011988751775467
  11      0.12552104549764
  12    -0.0056078550463412
  13      0.02444974449114
  14    -0.056421546795527
  15     -0.61149071250612
  16       2.4761226315242
  17    -0.011943659327397
  18    -0.041820773484545
  19     0.068822840226295
  20    -0.0028968725515367
  21      0.58426702575073
  22     -0.84383688764464
  23    0.0050406968891427
  24     0.049283667779664
  25     -0.21649019078715
  26     0.011010617074569
  27    -0.00048758707444943
  28    0.0023563316936658
  29    0.00045626110880398
  30    -0.061047997826275
  31     0.046980854483861
  32     -0.12426624975598
  33    -0.048532601344061
  34      0.45024742790273
  35      -2.7704902490164
  36     -0.12472572789341
  37    -0.046264336845655
  38    0.0098688740856148
  39    -0.001964151529884
  40     0.016579149764433
  41     0.013438139621967
  42    -0.026287874999893
  43       0.2176397918804
 Sym= A
 Ene=              16
 Spin= Alpha
 Occup=    0.00000
   1    -0.0083247879522139
   2    -0.043979835266761
   3      0.64769312396618
   4    -0.079517677949078
   5    -0.018213563956225
   6    1.5061915120755e-06
   7     0.078483748216035
   8      0.25240448760246
   9    -3.9166224912225e-05
  10    -0.0049493689499505
  11    -0.018354938969934
  12    -0.004949566633327
  13    -0.018410672021529
  14     0.057839830958486
  15      0.60640749834212
  16      -2.6078118224167
  17    -0.092939810810508
  18    -0.069624465739687
  19    -9.2336069036117e-06
  20      0.83254388614145
  21      0.70337977822978
  22    0.00012679121343158
  23     0.010835956623074
  24     0.092226692830063
  25     -0.47687640099662
  26    7.3216640049261e-05
  27     0.015560995404385
  28    1.537402651799e-06
  29      0.26596412093419
  30    -0.0018254056860433
  31    3.0208925858139e-06
  32      0.11945489709692
  33     0.044993589620327
  34      0.11944933497604
  35     0.045025432664687
  36     -0.43497773512352
  37       2.8149190153844
  38    0.0055009195110268
  39    -0.048698980498993
  40     0.037803159756415
  41     0.021359241328543
  42     0.037801511138113
  43      0.02136599213752
 Sym= A
 Ene=              17
 Spin= Alpha
 Occup=    0.00000
   1    0.0083249920237718
   2     0.043975361034066
   3     -0.64777976038862
   4    -0.079533426243878
   5     0.018213244386838
   6    1.8976247878728e-06
   7     0.078625290971148
   8     -0.25250827985015
   9    -1.2332551725294e-05
  10    0.0049456816536086
  11     0.018378031185141
  12    0.0049438135402465
  13     0.018367619928218
  14    -0.010835844505907
  15    -0.092226266382696
  16      0.47697911421327
  17    7.9105640999508e-05
  18    -0.015565529189016
  19    -2.5316527914673e-06
  20      0.26601904676872
  21    0.0017940301227834
  22    1.1671403011085e-05
  23    -0.057837253499137
  24     -0.60637171114552
  25       2.6075662290872
  26    -0.092916148188028
  27     0.069631677589841
  28    -7.0954655935107e-08
  29      0.83237578050685
  30     -0.70336364172479
  31    4.8607464529353e-06
  32     -0.03780160184673
  33    -0.021353274392536
  34    -0.037805050009465
  35    -0.021346199513826
  36    -0.0055021058493185
  37     0.048708711210192
  38      0.43499817956048
  39      -2.8147013077754
  40        -0.11945074692
  41    -0.045026307648853
  42     -0.11945052329996
  43    -0.045021309233188
 Sym= A
 Ene=              18
 Spin= Alpha
 Occup=    0.00000
   1    -0.0016280622069489
   2    -0.052364055398902
   3     -0.21223266038387
   4    -0.045805010487419
   5    -0.057082934009144
   6    -0.035909214236663
   7    -0.048293003917628
   8     0.039481018906087
   9     0.045214707059954
  10    -0.0055925665248255
  11     0.024500500239334
  12     0.011975736322202
  13      0.12548004417095
  14    0.0050415285190406
  15     0.049293757407488
  16     -0.21646563888448
  17    -0.010999429696837
  18    -0.00048618438360657
  19    -0.0023576772135649
  20    -0.00051262036022523
  21    -0.061037225342697
  22    -0.046928196972746
  23    -0.056424177830832
  24     -0.61152297213986
  25       2.4763193950317
  26     0.011937699462838
  27    -0.041808382616213
  28    -0.068843451562174
  29    0.0029895261782815
  30      0.58423651070495
  31      0.84398757729892
  32    -0.026277813262893
  33      0.21753129336284
  34      0.01658454494986
  35     0.013452201263045
  36    0.0098640676108703
  37    -0.0019867944620457
  38     -0.12472868216486
  39     -0.04625011243941
  40      0.45022512748998
  41      -2.7706603488661
  42     -0.12426422136398
  43    -0.048527947706187
 Sym= A
 Ene=              19
 Spin= Alpha
 Occup=    0.00000
   1     0.007190879888822
   2    -0.022874626298147
   3     0.015042459850322
   4    -0.030159809646326
   5    -0.033099172594536
   6    1.3044200323125e-06
   7     0.031664130843831
   8     0.025101527186217
   9    -9.9733306556778e-06
  10    0.0051211419446015
  11    -0.00016493232269463
  12    0.0051191454112169
  13    -0.00017173515605845
  14    -0.006503044698768
  15    -0.048317139045425
  16      0.13957859438573
  17    -0.0042030848817772
  18    -0.0053750634479033
  19    -2.2879742704609e-06
  20      0.11845697099226
  21     0.052687172730069
  22    1.3589966269113e-05
  23    -0.011708335752126
  24      0.74305512765298
  25     -0.42500778598868
  26     -0.83736232502796
  27      0.66042877515641
  28    -2.2547101188961e-06
  29      0.39671807690884
  30     -0.35620242648059
  31    3.0827407621543e-06
  32    -0.021024986013318
  33    -0.016629797879934
  34    -0.021026075093038
  35    -0.016619937078692
  36    0.0059612738206344
  37     0.047511362866665
  38      0.12060089853676
  39     -0.24431210259602
  40    -0.075698417302241
  41      0.18073249294213
  42    -0.075698236005732
  43      0.18073401077436
 Sym= A
 Ene=              20
 Spin= Alpha
 Occup=    0.00000
   1       0.0016289341319
   2     0.052369952015764
   3      0.21218365762372
   4     0.045810329515035
   5     0.057080768206462
   6    -0.035907619555597
   7     0.048286351428234
   8    -0.039501444642382
   9      0.04520720446372
  10    -0.011974339910845
  11      -0.1254719591339
  12     0.005593679737504
  13    -0.024504307952506
  14    -0.0050457974770065
  15    -0.049341768484914
  16      0.21663393869575
  17     0.010991745190106
  18    0.00047498675867799
  19    -0.0023559710599652
  20    0.00056613343743981
  21     0.061110337396904
  22    -0.046950037973885
  23     0.056424690189025
  24      0.61153020911707
  25      -2.4763219116733