[Molden Format]
made by pyscf v[1.5.2]
[Atoms] (AU)
C   1   6     0.00000000000000    -1.07506519226506     0.00000000000000
H   2   1     0.00000000000000    -2.30225333755761     1.66749433231621
H   3   1     0.00000000000000    -2.30225333755761    -1.66749433231621
C   4   6    -2.37557471119074     0.53743810982630     0.00000000000000
C   5   6     2.37557471119074     0.53762708243876     0.00000000000000
H   6   1    -2.45078581094843     1.74686282954794     1.67675399032658
H   7   1    -2.45040786572352     1.74705180216040    -1.67656501771412
H   8   1    -4.05818685250347    -0.66518359584690    -0.00018897261246
H   9   1     4.05818685250347    -0.66518359584690     0.00000000000000
H   10   1     2.45059683833597     1.74705180216040     1.67656501771412
H   11   1     2.45059683833597     1.74705180216040    -1.67656501771412
[GTO]
1 0
 s    6 1.00
             3047.5249  0.0018347001629433
             457.36951    0.01403730124668
             103.94869   0.068842606114048
             29.210155    0.23218442062076
              9.286663    0.46794134155879
              3.163927    0.36231203217765
 s    3 1.00
             7.8682724   -0.11933240861517
             1.8812885   -0.16085421161283
             0.5442493     1.1434564825515
 s    1 1.00
             0.1687144                   1
 p    3 1.00
             7.8682724   0.068999095584993
             1.8812885    0.31642397975315
             0.5442493    0.74430825237435
 p    1 1.00
             0.1687144                   1

2 0
 s    3 1.00
             18.731137    0.03349459952309
             2.8253937    0.23472694665786
             0.6401217    0.81375731841339
 s    1 1.00
             0.1612778                   1

3 0
 s    3 1.00
             18.731137    0.03349459952309
             2.8253937    0.23472694665786
             0.6401217    0.81375731841339
 s    1 1.00
             0.1612778                   1

4 0
 s    6 1.00
             3047.5249  0.0018347001629433
             457.36951    0.01403730124668
             103.94869   0.068842606114048
             29.210155    0.23218442062076
              9.286663    0.46794134155879
              3.163927    0.36231203217765
 s    3 1.00
             7.8682724   -0.11933240861517
             1.8812885   -0.16085421161283
             0.5442493     1.1434564825515
 s    1 1.00
             0.1687144                   1
 p    3 1.00
             7.8682724   0.068999095584993
             1.8812885    0.31642397975315
             0.5442493    0.74430825237435
 p    1 1.00
             0.1687144                   1

5 0
 s    6 1.00
             3047.5249  0.0018347001629433
             457.36951    0.01403730124668
             103.94869   0.068842606114048
             29.210155    0.23218442062076
              9.286663    0.46794134155879
              3.163927    0.36231203217765
 s    3 1.00
             7.8682724   -0.11933240861517
             1.8812885   -0.16085421161283
             0.5442493     1.1434564825515
 s    1 1.00
             0.1687144                   1
 p    3 1.00
             7.8682724   0.068999095584993
             1.8812885    0.31642397975315
             0.5442493    0.74430825237435
 p    1 1.00
             0.1687144                   1

6 0
 s    3 1.00
             18.731137    0.03349459952309
             2.8253937    0.23472694665786
             0.6401217    0.81375731841339
 s    1 1.00
             0.1612778                   1

7 0
 s    3 1.00
             18.731137    0.03349459952309
             2.8253937    0.23472694665786
             0.6401217    0.81375731841339
 s    1 1.00
             0.1612778                   1

8 0
 s    3 1.00
             18.731137    0.03349459952309
             2.8253937    0.23472694665786
             0.6401217    0.81375731841339
 s    1 1.00
             0.1612778                   1

9 0
 s    3 1.00
             18.731137    0.03349459952309
             2.8253937    0.23472694665786
             0.6401217    0.81375731841339
 s    1 1.00
             0.1612778                   1

10 0
 s    3 1.00
             18.731137    0.03349459952309
             2.8253937    0.23472694665786
             0.6401217    0.81375731841339
 s    1 1.00
             0.1612778                   1

11 0
 s    3 1.00
             18.731137    0.03349459952309
             2.8253937    0.23472694665786
             0.6401217    0.81375731841339
 s    1 1.00
             0.1612778                   1

[5d]
[9g]


[MO]
 Sym= A
 Ene=               0
 Spin= Alpha
 Occup=    1.00000
   1         1.01586746354
   2     -0.35212037219471
   3       0.3637674353733
   4    9.4451344060691e-07
   5    0.0015420194484239
   6    -7.1432467725496e-07
   7    -6.327432673205e-06
   8     0.015156200261064
   9    4.584797139623e-07
  10     0.014274156750974
  11    -0.061611332091591
  12     0.014274001920544
  13     -0.06161095053414
  14    -0.0011005264224286
  15    0.0088340034849886
  16    -0.068051916191844
  17    0.0073999976363248
  18    -0.0058281212635054
  19    -1.8636374436602e-07
  20     -0.03369657588448
  21     0.022086162378563
  22    6.6284394493209e-09
  23    -0.0011005054660736
  24    0.0088290751541293
  25    -0.068035389043292
  26    -0.0073967378928071
  27    -0.0058265193626525
  28    2.3922547221826e-07
  29     0.033689433817061
  30     0.022085851216105
  31    -2.0083185929466e-07
  32    0.0014760230797024
  33    -0.0039324162707216
  34    0.0014750232855336
  35    -0.0039316965974689
  36    0.00093547191793793
  37    -0.0020929905042372
  38    0.0009350916467544
  39    -0.0020922074842959
  40    0.0014753759551836
  41    -0.0039334034125754
  42    0.0014754015456291
  43    -0.0039334241932386
 Sym= A
 Ene=               1
 Spin= Alpha
 Occup=    1.00000
   1    -0.0017982518440078
   2    0.0033551241565393
   3    -0.032048263238693
   4    -0.0079949270812198
   5    0.0058812878044265
   6    -6.8999693457606e-09
   7     0.033165569401166
   8     -0.01259581539222
   9    -2.798772802261e-06
  10    -0.00020183796177588
  11    -0.0052379426008583
  12    -0.00020258167727463
  13    -0.0052397626891296
  14       1.0168711813762
  15     -0.34550439946709
  16      0.32199977853547
  17    -0.00056196070795532
  18    -0.002478508958447
  19    6.5764580935657e-07
  20     0.010197537629996
  21    0.0019514554963479
  22    -1.9464302401919e-07
  23    0.0012282108365467
  24     0.010789003496434
  25    -0.034419886369999
  26    -0.0014284129098861
  27    0.00095224486741365
  28    -1.2435994801556e-07
  29     0.018125601275239
  30    -0.0058419306231107
  31    1.859887507606e-06
  32     0.016120827192718
  33    -0.061361605462922
  34     0.016123376337209
  35    -0.061365825525111
  36     0.016832278417744
  37    -0.054144018612533
  38    -5.4787565102596e-05
  39    -0.0074577284645624
  40    0.0029752907905297
  41    0.0074877306536044
  42    0.0029748748733975
  43    0.0074920286174309
 Sym= A
 Ene=               2
 Spin= Alpha
 Occup=    1.00000
   1    -0.0017981303570379
   2    0.0033512382417895
   3    -0.032036694388152
   4    0.0079915190984753
   5    0.0058797213820016
   6    -3.5946306914422e-07
   7    -0.033161249504483
   8    -0.012593279045845
   9    1.6415099346668e-06
  10    -0.00020180473407925
  11    -0.0052389328717441
  12    -0.00020160947672842
  13    -0.0052375320069069
  14    0.0012282003649849
  15     0.010788988530142
  16    -0.034418935433227
  17    0.0014283512801107
  18    0.0009524376585571
  19    3.5923269990229e-07
  20    -0.018128501547311
  21    -0.005842437073377
  22    -1.7273401054028e-06
  23       1.0168711689204
  24     -0.34550492409445
  25      0.32200030943286
  26    0.00056284930607111
  27    -0.002481441847536
  28    3.2708470993044e-07
  29     -0.01019660916077
  30    0.0019544308632263
  31    -5.9602441873362e-07
  32    0.0029750044301665
  33    0.0074888666967075
  34    0.0029754280675499
  35    0.0074883041771621
  36    -5.5160742475942e-05
  37    -0.0074590332621063
  38     0.016827389625126
  39     -0.05413665507045
  40     0.016128587498153
  41    -0.061372980890165
  42     0.016128836353311
  43    -0.061374044365729
 Sym= A
 Ene=               3
 Spin= Alpha
 Occup=    1.00000
   1    -0.0076627809393492
   2     -0.82192086450985
   3       0.8170667812137
   4    0.00011379979601905
   5     -0.61793428944304
   6      0.89286990081476
   7    -8.4756646879683e-05
   8      0.39118531348371
   9     -0.58669695071284
  10     -0.13897255731542
  11      0.27717864358089
  12     0.070136231254082
  13     -0.28241351838315
  14    -0.0013386539963094
  15     0.050245900624613
  16     -0.26995020160883
  17     0.034906732714736
  18    -0.025023914201804
  19    -0.0077718898560124
  20     -0.13726393372995
  21     0.066723347260187
  22     0.094246642609629
  23    -0.0013382781351651
  24     0.050224280125378
  25     -0.26987989613732
  26    -0.034885153795773
  27    -0.025011344478074
  28    -0.0077630042069347
  29      0.13722486272261
  30      0.06668757248337
  31     0.094243154653565
  32    -0.00040060664929181
  33    -0.025335457626442
  34    0.0097741129593516
  35    -0.015858309648729
  36    0.0033090516191518
  37    0.0028773800353463
  38    0.0033076553211022
  39    0.0028849028185797
  40    -0.0004009468392109
  41    -0.025323667254402
  42    0.0097817554425705
  43    -0.015842632773412
 Sym= A
 Ene=               4
 Spin= Alpha
 Occup=    1.00000
   1    0.0098077781869437
   2     0.009021318150241
   3     -0.21293467009483
   4     -0.06641737026272
   5    -0.041267629783203
   6    1.1659843814147e-06
   7      0.03439393218531
   8    -0.030835077216461
   9    -5.2419256009233e-06
  10     0.016581227946758
  11     0.044685083043332
  12     0.016581086263953
  13     0.044698045435928
  14    -0.0029711020633861
  15    -0.017880774826997
  16      0.11603394768755
  17    0.0042977618919402
  18    -0.0023520279744567
  19    -4.5116029340139e-07
  20     0.083381822337855
  21    -0.017885265363929
  22    1.8895062288289e-06
  23    -0.0059683552271549
  24     -0.84918846829308
  25      0.84740559599929
  26     -0.89338197750374
  27     -0.55153857343118
  28    -0.00015731390723495
  29      0.36548096999096
  30      0.19157925353632
  31    9.5061517236091e-05
  32     -0.01259460150305
  33     0.015089016496381
  34    -0.012595932391708
  35     0.015092803872201
  36    0.0017824526036851
  37    0.0081074021345173
  38     0.098556493436316
  39     -0.26827569224487
  40      0.09767404760137
  41     -0.23050407013017
  42     0.097646699691843
  43     -0.23040920373255
 Sym= A
 Ene=               5
 Spin= Alpha
 Occup=    1.00000
   1    -0.0065079590550811
   2      -0.8451701068993
   3      0.82162971521835
   4      -0.8568635340958
   5      0.61332706743617
   6    0.0002127862035376
   7      0.43764848519487
   8     -0.28759637786499
   9    -0.00015215676846423
  10      0.08889909873318
  11     -0.24892708669608
  12     0.088935423262269
  13     -0.24906810571038
  14    0.0060649736702864
  15     -0.02434417665445
  16    -0.023006713986334
  17    -0.061885182136468
  18      0.05007267590111
  19    6.5450482146146e-07
  20     0.024812919653436
  21     -0.06241977094558
  22    1.9581595840424e-05
  23    -0.0028719864221764
  24      0.04017810509887
  25     -0.21253676967967
  26    -0.031166302552095
  27    -0.037275929955084
  28    -1.7933110393494e-06
  29     0.065230881247701
  30      0.14405741419718
  31    3.0181416015288e-05
  32     0.011960273504995
  33     0.051461785732497
  34     0.011966949017723
  35     0.051460568098654
  36    0.0053215826575252
  37      0.02790393459656
  38    0.0061643251226374
  39    -0.016679087545784
  40    -0.00083441979663222
  41    -0.019700509996886
  42    -0.00082950644341918
  43    -0.019694780700651
 Sym= A
 Ene=               6
 Spin= Alpha
 Occup=    1.00000
   1      0.12427389977858
   2       1.1498466026298
   3      -3.6482270373132
   4    1.9138186528204e-06
   5      0.19219947989094
   6     -0.30778415879125
   7    8.7028490495429e-05
   8      -1.5416497116188
   9       1.9764851710232
  10    -0.047149263160921
  11      -0.7850721117977
  12      0.34658110698748
  13      0.72202772703308
  14    -0.018885965713937
  15    -0.083025791153401
  16       1.6384567499245
  17      0.12759245609971
  18    -0.050332093572673
  19    -0.030833741374824
  20      0.61915745097267
  21      -0.2173116919375
  22       -0.475902417841
  23    -0.018889717566133
  24    -0.083049529224382
  25       1.6383970405879
  26     -0.12758516592199
  27    -0.050332144120763
  28    -0.030830190285025
  29     -0.61905560546655
  30     -0.21732599636392
  31     -0.47590274052936
  32    -0.024786221585416
  33     0.048015964979505
  34    -0.097013117587358
  35     -0.17452575075157
  36    -0.051687327055613
  37    -0.025914173519483
  38    -0.051694159920164
  39     -0.02594323557936
  40    -0.024792139872776
  41     0.047994759717478
  42    -0.097033212764577
  43     -0.17456707675569
 Sym= A
 Ene=               7
 Spin= Alpha
 Occup=    1.00000
   1    -0.0071499480647706
   2    -0.050391010823761
   3      0.26435249234574
   4    2.3547456239099e-05
   5    0.0045686205609463
   6    -4.5702355106181e-07
   7     -0.18788797381116
   8     0.026376584705172
   9    -2.7992682601953e-06
  10    -0.023470208126848
  11    -0.00084963415800586
  12    -0.023471828281138
  13    -0.00084595921240245
  14      0.01092146637635
  15    -0.019532466354745
  16     -0.30346632525796
  17      0.11105944660255
  18     0.072666693059687
  19    1.2057460271302e-05
  20     -0.10207121558663
  21      0.07121029694272
  22    -4.0306309050797e-07
  23    -0.00044351729588153
  24    -0.0033688462000783
  25     0.044405426045107
  26    -0.0023581123514787
  27    0.0010419530324781
  28    -1.692028456816e-07
  29    0.0087027694950848
  30    -0.030842928767382
  31    1.8807496103447e-06
  32     0.024146347699467
  33     0.065749355190757
  34     0.024144498983162
  35     0.065751992542632
  36       1.2986541613036
  37     -0.44545343364862
  38    -0.004932022780352
  39     -0.00574398955899
  40    0.0025029704892637
  41    -0.0021738139997313
  42    0.0025040602158607
  43    -0.0021754031336741
 Sym= A
 Ene=               8
 Spin= Alpha
 Occup=    1.00000
   1    -0.0065069916356543
   2     -0.84515188613845
   3      0.82162003536992
   4      0.85679114267022
   5      0.61344415547854
   6    7.7361345183794e-05
   7      -0.4376295246437
   8     -0.28768143828863
   9    -5.4859443503765e-05
  10     0.088918351636008
  11     -0.24899041731492
  12     0.088933153183332
  13      -0.2490423147886
  14    -0.0028714213353255
  15     0.040191521743858
  16     -0.21255833450324
  17     0.031175412545545
  18    -0.037283642878302
  19    -1.4295204623912e-06
  20    -0.065217953023965
  21      0.14405767968817
  22    7.3360246846078e-06
  23    0.0060666381086117
  24    -0.024322321549198
  25     -0.02302097358803
  26     0.061870753507173
  27     0.050064652254392
  28    -4.4143548721344e-06
  29    -0.024824684551902
  30    -0.062415607805127
  31    8.521151154629e-06
  32    -0.00083163316623037
  33    -0.019686469682025
  34    -0.00083298719178079
  35    -0.019688609251264
  36    0.0061665805356551
  37    -0.016662737472002
  38    0.0053241192391213
  39     0.027909282592556
  40     0.011963569258416
  41     0.051468543845485
  42     0.011962494962538
  43     0.051470193740233
 Sym= A
 Ene=               9
 Spin= Alpha
 Occup=    1.00000
   1    0.0071126520680528
   2     0.051809987610735
   3     -0.25825388187311
   4    -0.010766590309425
   5    -0.0015914946010842
   6    -0.0063143959925319
   7    -0.073648667404243
   8    -0.094761690280757
   9     0.095257496854644
  10    -0.0031005763285695
  11    -0.028110726993956
  12     0.027320299069989
  13     0.016290848860178
  14    0.0013310322154689
  15     0.019595526352688
  16     0.040638243746552
  17     0.022435313388651
  18    0.0048301899420085
  19    0.0032795887073559
  20    -0.052694013508784
  21     -0.04126882069104
  22    -0.055522799235334
  23     -0.01114133973056
  24     0.014926961624761
  25      0.26954132892944
  26     0.014524949754149
  27     0.079131304294592
  28     -0.10848551103093
  29     -0.11254687983465
  30    -0.053172977390152
  31    0.0071037336992897
  32    0.0074483435878857
  33     0.035846311541109
  34    0.0099492424856375
  35    -0.051383188618255
  36    -0.0061384255294585
  37     -0.05189571746585
  38    -0.022329541319647
  39    -0.051649762531596
  40    -0.025702071978177
  41    -0.070048019152426
  42      -1.3013521975574
  43      0.45798246068514
 Sym= A
 Ene=              10
 Spin= Alpha
 Occup=    1.00000
   1    -0.0076620888070029
   2     -0.82191770967751
   3      0.81702091704601
   4    -1.7896966473711e-05
   5     -0.61753072182962
   6     -0.89316196549334
   7    3.4440584346349e-06
   8      0.39091449249518
   9      0.58690272311142
  10     0.070195647023728
  11     -0.28259980490693
  12     -0.13896503012711
  13      0.27718446291405
  14    -0.0013378937500289
  15     0.050229185112058
  16     -0.26984888970727
  17     0.034892341679204
  18    -0.025009480730124
  19     0.007771404267744
  20     -0.13720289514666
  21     0.066673717619824
  22    -0.094265350858509
  23    -0.001339072281645
  24     0.050211337119893
  25     -0.26980933779327
  26    -0.034878710859545
  27    -0.025011060506009
  28    0.0077765043995663
  29      0.13717490576191
  30     0.066706606283153
  31     -0.09428435360785
  32    0.0097822266581879
  33    -0.015837688428283
  34    -0.0004022276249477
  35    -0.025298651168032
  36    0.0033078946827514
  37    0.0028685640774658
  38    0.0033090042961669
  39    0.0028852497373134
  40    0.0097791507488256
  41    -0.015838259513819
  42    -0.00040465301744697
  43    -0.025329929566173
 Sym= A
 Ene=              11
 Spin= Alpha
 Occup=    1.00000
   1    0.0067842644349403
   2    -0.0034925354274433
   3    -0.00050205974999863
   4     0.023902520166138
   5    -0.026131380972603
   6    -7.356820948083e-07
   7    -0.051237042393174
   8     0.019271526851942
   9    3.4884023587834e-05
  10     0.005547497552191
  11    0.0024011360048055
  12    0.0055529458651545
  13    0.0024218814514073
  14    0.0055642702349243
  15       0.8140523042166
  16     -0.62315840159321
  17      0.85415091172434
  18      0.68092181584998
  19    0.00013881119147712
  20     -0.48651487029066
  21     -0.43698355320764
  22    -8.6068381999119e-05
  23    -0.0091988180314605
  24    -0.075403271072286
  25       0.2160050822452
  26     0.013859933205609
  27    -0.010151661958615
  28    5.1415118117863e-07
  29     -0.18879427344177
  30     0.085795261973135
  31    -1.4493192456074e-05
  32    -0.085963037000102
  33      0.26480028754419
  34    -0.085975454332704
  35      0.26479834725172
  36      0.13730200831349
  37     -0.29392673547531
  38    0.0079423279461166
  39     0.080973216004283
  40    -0.028306605338268
  41    -0.034074853230672
  42    -0.028304523873036
  43    -0.034103015355646
 Sym= A
 Ene=              12
 Spin= Alpha
 Occup=    1.00000
   1     0.016824177910036
   2     0.036102325859269
   3     -0.51299809564229
   4    3.2515560122864e-06
   5     0.084510099309197
   6    -0.093428591323635
   7    2.8776310387293e-05
   8     -0.11943991083215
   9    -0.097000116590499
  10       1.3230478880224
  11     -0.41642995684894
  12     0.026435945227916
  13     0.045677087768999
  14    -0.0071533565028592
  15    -0.046454148175899
  16      0.28324401029969
  17     0.013453357861751
  18    -0.0040581210309636
  19    -0.0060032325451412
  20     0.094190241658918
  21     -0.10548816901347
  22      0.11485238558343
  23     -0.00715297016716
  24    -0.046453298540651
  25      0.28319001863005
  26    -0.013450000244507
  27    -0.0040538216097735
  28    -0.0060049941830726
  29    -0.094181423479821
  30     -0.10548139749666
  31      0.11486933500848
  32    -0.028079995746472
  33    -0.025818679362839
  34    0.0037104776539517
  35     0.039813046411323
  36     -0.02387983205969
  37    -0.013322813040927
  38     -0.02388030498199
  39    -0.013319405634921
  40    -0.028078559092884
  41    -0.025832707837512
  42    0.0037129334900301
  43     0.039831295493679
 Sym= A
 Ene=              13
 Spin= Alpha
 Occup=    0.00000
   1    -0.061187285033723
   2     -0.56514273623076
   3       2.4225631531671
   4    2.7851774275628e-06
   5     0.021933755772522
   6     0.044101902977521
   7    -3.1549980467602e-05
   8     -0.55718786016409
   9     -0.75641298546599
  10     -0.11041308916223
  11    -0.070427474545282
  12      0.35734810905121
  13      -2.6877327141196
  14    -0.0041254086830864
  15    -0.066437601660061
  16     -0.19653928725337
  17     -0.03888163080049
  18     0.054474754341859
  19     0.042005508338847
  20    -0.028485570541345
  21     -0.03874248224274
  22     -0.11275620910698
  23    -0.004121822603783
  24    -0.066407040395247
  25     -0.19656492414423
  26     0.038870663781274
  27     0.054475195352291
  28     0.041997062832192
  29     0.028516454312494
  30    -0.038785906141485
  31      -0.1127165357605
  32      0.01824256724046
  33      0.14000830873668
  34    -0.012781643752793
  35    -0.0012447858734757
  36    -0.011872099781477
  37     0.018923700911791
  38    -0.011874599062554
  39     0.018897929409652
  40     0.018243478158626
  41      0.14002485904449
  42    -0.012769848220516
  43    -0.0012091378688413
 Sym= A
 Ene=              14
 Spin= Alpha
 Occup=    0.00000
   1    -0.061188088328465
   2      -0.5651491938832
   3        2.422601860129
   4    -2.3079402660172e-06
   5     0.021937254894042
   6    -0.044102712250977
   7    -1.2479691550076e-05
   8     -0.55716077774676
   9      0.75644331777388
  10      0.35734532210411
  11      -2.6877414066107
  12      -0.1104096712919
  13    -0.070416072141782
  14     -0.00412367857473
  15    -0.066422671068639
  16     -0.19659303168498
  17      -0.0388711219617
  18     0.054484724624873
  19    -0.042000823781237
  20    -0.028566355831989
  21    -0.038821516159535
  22      0.11272207690184
  23    -0.0041227103703685
  24     -0.06641659140528
  25     -0.19656501858249
  26     0.038876018116856
  27     0.054475849311932
  28    -0.041998594775494
  29     0.028507509194747
  30    -0.038761634702431
  31      0.11270388946658
  32    -0.012773366976507
  33    -0.0011910467575621
  34     0.018248513841975
  35      0.14003656993319
  36    -0.011872915919498
  37      0.01886207533231
  38    -0.011872872197372
  39     0.018909353207955
  40    -0.012770986635353
  41    -0.0012129420091666
  42     0.018240254622877
  43      0.14000819916419
 Sym= A
 Ene=              15
 Spin= Alpha
 Occup=    0.00000
   1    -0.0024650192923517
   2    -0.048166356169462
   3     -0.21111465377712
   4     0.036940824657929
   5    -0.050123691527661
   6     0.033723642709135
   7     0.061294789109854
   8     0.044312175369769
   9    -0.062395661132682
  10     0.012817194500791
  11       0.1324197270281
  12    -0.0053348330418364
  13     0.019543530541138
  14    -0.058943038501216
  15     -0.53948736240341
  16       2.3879151884323
  17    -0.0094712878957143
  18    -0.022863698240551
  19     0.043032785673112
  20    0.0013057497708138
  21      0.54651406591261
  22     -0.80570048904794
  23    0.0049512092802864
  24     0.042074119900788
  25     -0.21091461477351
  26    0.0096399833189186
  27    -0.0020644861366824
  28     0.002742268605141
  29    0.00046810061962309
  30    -0.049631532470716
  31     0.051115698026326
  32      -0.1031676216605
  33    -0.047888192740966
  34       0.3613066044944
  35      -2.7000897327207
  36     -0.10423264450091
  37    -0.051747253788699
  38    0.0081424848937276
  39      0.00259677811091
  40     0.012474645569799
  41    0.0092024780757516
  42    -0.020989224058833
  43      0.21000010188099
 Sym= A
 Ene=              16
 Spin= Alpha
 Occup=    0.00000
   1    -0.0024628048417854
   2     -0.04815046537415
   3     -0.21109969167984
   4    -0.036939967778561
   5    -0.050122205450437
   6    -0.033710363986057
   7    -0.061313844338978
   8     0.044325546260406
   9     0.062276831529029
  10    -0.0053212278666109
  11      0.01959801080087
  12     0.012806754206219
  13      0.13237790142479
  14    0.0049523731434362
  15     0.042086656691037
  16     -0.21089737047654
  17    -0.009629996562481
  18    -0.0020620184837562
  19    -0.0027428720642035
  20    -0.00052374448749003
  21    -0.049629868519217
  22    -0.051063049279458
  23    -0.058946682138941
  24     -0.53952219268076
  25       2.3881283001506
  26     0.009470754590054
  27    -0.022855001795523
  28    -0.043046943099243
  29    -0.0012265680838415
  30      0.54648567166296
  31      0.80584551369147
  32    -0.020981946798694
  33      0.20990224442621
  34     0.012480621712247
  35    0.0092202002998992
  36    0.0081378322131931
  37    0.0025721758275205
  38     -0.10423755933852
  39    -0.051730909227453
  40      0.36128391151267
  41      -2.7002581953037
  42     -0.10316709497011
  43    -0.047886757064458
 Sym= A
 Ene=              17
 Spin= Alpha
 Occup=    0.00000
   1    0.0077159036827444
   2     0.041533336823792
   3      -0.6271610972717
   4    -0.070535809567749
   5     0.019764179447487
   6    2.3634281173059e-06
   7      0.09024380742609
   8       -0.267636095876
   9    -1.0315121056284e-05
  10    0.0027275070825496
  11     0.012464219195502
  12    0.0027263570936351
  13     0.012455758926559
  14    -0.010392489235186
  15    -0.083572395674019
  16      0.47108065225802
  17    0.00039217709946762
  18     -0.01482467942521
  19    -2.4395368558817e-06
  20      0.26351140378337
  21    0.0028351694009885
  22    1.1985661978744e-05
  23    -0.058750007824929
  24     -0.53020091053038
  25       2.4949253531763
  26    -0.056770518983907
  27     0.045883935800659
  28    -1.4196630737107e-06
  29      0.77651742444327
  30     -0.66941781596872
  31    1.5237362120875e-06
  32    -0.031301296282017
  33    -0.025307293299365
  34    -0.031304413253487
  35    -0.025299587514673
  36    -0.0041831544253007
  37     0.049280115618792
  38      0.34981005675492
  39      -2.7373705840987
  40     -0.10063252258139
  41    -0.043798288101798
  42     -0.10063329549718
  43    -0.043796947884789
 Sym= A
 Ene=              18
 Spin= Alpha
 Occup=    0.00000
   1    0.0024646178878558
   2     0.048161445622898
   3      0.21103094500855
   4    -0.036941168181576
   5     0.050120410987168
   6     0.033709365817523
   7    -0.061322841044866
   8    -0.044375603824523
   9    -0.062244952707468
  10    0.0053241654459191
  11    -0.019623710279273
  12    -0.012804592979114
  13     -0.13237135004717
  14      0.05894421499743
  15      0.53950132872543
  16      -2.3878403025593
  17    0.0094707055221431
  18     0.022864821427145
  19      0.04304445276613
  20    -0.0011461220103008
  21     -0.54643201482823
  22     -0.80580091027617
  23    -0.0049565093442448
  24    -0.042124875909225
  25       0.2110487524303
  26    -0.009622942178505
  27    0.0020529348889799
  28    0.0027417955009466
  29    -0.00059982380879831
  30     0.049680523173544
  31     0.051062457584681
  32     -0.36129879685205
  33       2.7000134796646
  34      0.10316770437526
  35      0.04789507388627
  36      0.10423434160705
  37     0.051726351212354
  38    -0.008137449284587
  39    -0.0025438526607095
  40     0.020972379111334
  41     -0.20995206368979
  42    -0.012492130975236
  43    -0.0092567906808215
 Sym= A
 Ene=              19
 Spin= Alpha
 Occup=    0.00000
   1    -0.0077150103117035
   2    -0.041530421221806
   3       0.6270405158486
   4    -0.070519663991176
   5    -0.019763211175865
   6    1.0358589070812e-06
   7     0.090101398257634
   8      0.26751802507287
   9    -4.3025567079563e-05
  10    -0.0027293571605264
  11    -0.012442782826132
  12    -0.0027305493558307
  13    -0.012501263954138
  14      0.05875104200289
  15      0.53021453837848
  16      -2.4951164205927
  17    -0.056787445934402
  18    -0.045878350683757
  19    -7.0908363108502e-06
  20      0.77668502244195
  21       0.6694276255914
  22    0.00012666386534832
  23     0.010392318798758
  24     0.083571557151734
  25     -0.47095917569207
  26    0.00038551865238184
  27     0.014820908392265
  28    7.7509880573294e-07
  29      0.26345095066872
  30    -0.0028719378883235
  31    5.3586471007976e-06
  32      0.10063547119206
  33     0.043759018303352
  34      0.10063174252562
  35     0.043796865365873
  36     -0.34979231760718
  37       2.7375755487252
  38    0.0041813773577694
  39    -0.049273471038908
  40     0.031301787580556
  41     0.025312319573704
  42      0.03130062300071
  43     0.025320188588367
 Sym= A
 Ene=              20
 Spin= Alpha
 Occup=    0.00000
   1    -0.0024633947816633
   2    -0.048154747700841
   3     -0.21105202167797
   4    -0.036946224614435
   5    -0.050120103459218
   6     0.033709503878938
   7    -0.061309731870982
   8     0.044347129355013
   9    -0.062264977459008
  10     0.012805596772979
  11      0.13236848483535
  12    -0.0053211663848817
  13     0.019603282301305
  14    0.0049573725574142
  15     0.042134356562614
  16      -0.2110727190222
  17    -0.0096220300955578
  18    -0.0020523649556363
  19    0.0027415189612787
  20    -0.00058334468735816
  21    -0.049704401219889
  22     0.051084757416604
  23    -0.058947774511754
  24     -0.53953318548257
  25       2.3881423696842
  26    0.0094708080437582