 &FCI NORB=  9,NELEC=  2,MS2= 0,
  ORBSYM=1,1,1,1,1,1,1,1,1,
  ISYM=1,
 /
  0.1650352445411866E+01   1   1   1   1
 -0.1299715918160596E+00   2   1   1   1
  0.1610822339038467E-01   2   1   2   1
  0.3360972639299470E+00   2   2   1   1
 -0.3306002071426235E-02   2   2   2   1
  0.2470172765992599E+00   2   2   2   2
  0.6952284354791293E-17   3   1   1   1
 -0.9041771323154627E-18   3   1   2   1
 -0.6950467361486603E-18   3   1   2   2
  0.2408033956565250E-02   3   1   3   1
 -0.1542102335727001E-16   3   2   1   1
  0.6692616675642335E-19   3   2   2   1
 -0.1085115613526882E-16   3   2   2   2
  0.4474905447915348E-02   3   2   3   1
  0.4459669356907977E-01   3   2   3   2
  0.2622590018204811E+00   3   3   1   1
 -0.8648234803753166E-03   3   3   2   1
  0.2154604328034684E+00   3   3   2   2
 -0.2150933512550946E-18   3   3   3   1
 -0.5499525608994070E-17   3   3   3   2
  0.2130267981856471E+00   3   3   3   3
  0.3289501532784454E-16   4   1   1   1
 -0.3910394234989059E-17   4   1   2   1
  0.1305129917722197E-17   4   1   2   2
  0.5014434481558128E-18   4   1   3   1
 -0.2714568565735919E-19   4   1   3   2
  0.2432103439024567E-18   4   1   3   3
  0.2408033956565251E-02   4   1   4   1
 -0.3872988472126678E-16   4   2   1   1
  0.1007463623275952E-17   4   2   2   1
 -0.7193933382703451E-17   4   2   2   2
  0.6910836446506052E-18   4   2   3   1
 -0.4182692770173904E-17   4   2   3   2
 -0.1273866181956819E-16   4   2   3   3
  0.4474905447915350E-02   4   2   4   1
  0.4459669356907978E-01   4   2   4   2
 -0.2428724254583317E-16   4   3   1   1
 -0.7845657661557826E-19   4   3   2   1
 -0.2723257065512020E-16   4   3   2   2
 -0.9626225269072976E-18   4   3   3   1
 -0.5195955223332528E-17   4   3   3   2
  0.1398416350140415E-11   4   3   3   3
 -0.1405915244919658E-18   4   3   4   1
 -0.1371954138858683E-18   4   3   4   2
  0.1209927133028854E-01   4   3   4   3
  0.2622590018204812E+00   4   4   1   1
 -0.8648234803753235E-03   4   4   2   1
  0.2154604328034684E+00   4   4   2   2
  0.6608969773012108E-19   4   4   3   1
 -0.5225134781222982E-17   4   4   3   2
  0.1888282554985053E+00   4   4   3   3
 -0.1682034709911394E-17   4   4   4   1
 -0.2313057226623374E-16   4   4   4   2
 -0.1398474218372581E-11   4   4   4   3
  0.2130267981856471E+00   4   4   4   4
 -0.3054901676754837E-01   5   1   1   1
  0.3484768169323763E-02   5   1   2   1
 -0.2187491344799850E-02   5   1   2   2
  0.3083645612563429E-17   5   1   3   1
  0.2489910283199551E-17   5   1   3   2
 -0.2356778914979977E-03   5   1   3   3
 -0.6413636165444783E-18   5   1   4   1
 -0.1171075167695148E-17   5   1   4   2
 -0.4489274620447792E-19   5   1   4   3
 -0.2356778914979977E-03   5   1   4   4
  0.5978164073701588E-02   5   1   5   1
  0.2993565100315432E-01   5   2   1   1
 -0.1022127960664645E-02   5   2   2   1
 -0.8743612813593565E-04   5   2   2   2
  0.3968517119013075E-17   5   2   3   1
  0.7954170071216513E-17   5   2   3   2
  0.9112414642824687E-02   5   2   3   3
  0.7726163348069992E-18   5   2   4   1
 -0.1068670204384618E-16   5   2   4   2
 -0.3117081245895825E-18   5   2   4   3
  0.9112414642824690E-02   5   2   4   4
  0.6874198968529699E-02   5   2   5   1
  0.5045196341960001E-01   5   2   5   2
  0.7217901313579326E-16   5   3   1   1
 -0.1099685087358043E-17   5   3   2   1
  0.3636893611421941E-16   5   3   2   2
  0.8671333403634596E-03   5   3   3   1
  0.3992044156333877E-02   5   3   3   2
  0.2991811169430381E-16   5   3   3   3
  0.6289561221189105E-19   5   3   4   1
  0.6331762015013330E-18   5   3   4   2
 -0.3850480668713692E-17   5   3   4   3
  0.2815286082889396E-16   5   3   4   4
  0.1136713495924765E-18   5   3   5   1
  0.5906629913340430E-17   5   3   5   2
  0.1298742698853264E-01   5   3   5   3
 -0.6000156565177463E-16   5   4   1   1
  0.2247940608377161E-18   5   4   2   1
 -0.4837325124640444E-16   5   4   2   2
  0.1411465880902636E-18   5   4   3   1
  0.9166726510341983E-19   5   4   3   2
 -0.4456707087573583E-16   5   4   3   3
  0.8671333403634597E-03   5   4   4   1
  0.3992044156333878E-02   5   4   4   2
  0.8826254327662229E-18   5   4   4   3
 -0.5226803219560072E-16   5   4   4   4
 -0.1784489247711170E-17   5   4   5   1
 -0.9591592343729291E-17   5   4   5   2
 -0.1182953019088028E-17   5   4   5   3
  0.1298742698853265E-01   5   4   5   4
  0.3234939039675649E+00   5   5   1   1
 -0.2115128533510213E-02   5   5   2   1
  0.2381517669738119E+00   5   5   2   2
  0.1872506890239104E-17   5   5   3   1
 -0.2733588753195026E-17   5   5   3   2
  0.2064520060902457E+00   5   5   3   3
  0.6969328574232491E-18   5   5   4   1
 -0.1976297853751406E-16   5   5   4   2
 -0.2667137344314341E-16   5   5   4   3
  0.2064520060902457E+00   5   5   4   4
  0.2506382271178323E-02   5   5   5   1
  0.2529178781224779E-01   5   5   5   2
  0.4035352416250905E-16   5   5   5   3
 -0.5759346877136796E-16   5   5   5   4
  0.2631585537518102E+00   5   5   5   5
 -0.2704280178945094E-19   6   1   1   1
  0.3477991512424529E-20   6   1   2   1
 -0.1836631386109779E-20   6   1   2   2
 -0.5017459710303297E-02   6   1   3   1
 -0.7957872539559556E-02   6   1   3   2
  0.5157158910591452E-18   6   1   3   3
  0.4143219607146538E-03   6   1   4   1
  0.6571296122093446E-03   6   1   4   2
  0.1709742768904992E-17   6   1   4   3
 -0.2864924917481518E-18   6   1   4   4
  0.9548382905566992E-18   6   1   5   1
  0.1512421654632883E-17   6   1   5   2
 -0.1561745647202657E-02   6   1   5   3
  0.1289627732053013E-03   6   1   5   4
  0.5926418747429109E-18   6   1   5   5
  0.1065081755445782E-01   6   1   6   1
 -0.1374937916798597E-19   6   2   1   1
  0.1293921946949154E-20   6   2   2   1
 -0.1005816007045666E-19   6   2   2   2
 -0.3760077950152268E-02   6   2   3   1
 -0.1897858383212766E-01   6   2   3   2
  0.2004767253097240E-17   6   2   3   3
  0.3104923524443908E-03   6   2   4   1
  0.1567176324060451E-02   6   2   4   2
  0.4638004360713156E-17   6   2   4   3
 -0.7853852437271890E-18   6   2   4   4
  0.7151608315151107E-18   6   2   5   1
  0.3605544961994988E-17   6   2   5   2
 -0.4051973778584116E-02   6   2   5   3
  0.3345959544547790E-03   6   2   5   4
  0.1532452097653068E-17   6   2   5   5
  0.6926030070826391E-02   6   2   6   1
  0.1645757915705707E-01   6   2   6   2
 -0.1136013495806677E+00   6   3   1   1
  0.1729962950809211E-02   6   3   2   1
 -0.5264170476298816E-01   6   3   2   2
  0.1882047232013218E-18   6   3   3   1
  0.6934006416683617E-17   6   3   3   2
 -0.3988296850846838E-01   6   3   3   3
 -0.5079562786951299E-18   6   3   4   1
  0.8628575181584749E-17   6   3   4   2
  0.1535539138448979E-03   6   3   4   3
 -0.3616387733670837E-01   6   3   4   4
  0.4589939910177474E-03   6   3   5   1
 -0.6828310032291919E-02   6   3   5   2
 -0.1595735364314177E-16   6   3   5   3
  0.9181123814792916E-17   6   3   5   4
 -0.4872866216705719E-01   6   3   5   5
 -0.5626411188836282E-18   6   3   6   1
 -0.9874990245274395E-18   6   3   6   2
  0.3206838293178260E-01   6   3   6   3
  0.9380749745023420E-02   6   4   1   1
 -0.1428534922305642E-03   6   4   2   1
  0.4346943591390523E-02   6   4   2   2
  0.1168070612609183E-17   6   4   3   1
  0.7851002113406879E-17   6   4   3   2
  0.2986269832134605E-02   6   4   3   3
 -0.5582062614423069E-19   6   4   4   1
 -0.1408201438371070E-17   6   4   4   2
 -0.1859545588910634E-02   6   4   4   3
  0.3293377658016115E-02   6   4   4   4
 -0.3790190680040763E-04   6   4   5   1
  0.5638548118557202E-03   6   4   5   2
  0.1419073085755619E-17   6   4   5   3
 -0.4109566713528749E-18   6   4   5   4
  0.4023820024024976E-02   6   4   5   5
 -0.2115240817649861E-17   6   4   6   1
 -0.3861499127547813E-17   6   4   6   2
 -0.2317172950477192E-02   6   4   6   3
  0.4198645311865146E-02   6   4   6   4
  0.2159281371563403E-16   6   5   1   1
 -0.3284397624113219E-18   6   5   2   1
  0.1000392685773303E-16   6   5   2   2
 -0.1100500706207648E-02   6   5   3   1
 -0.7370548154439678E-02   6   5   3   2
  0.3008109744363078E-17   6   5   3   3
  0.9087499186640236E-04   6   5   4   1
  0.6086306894738621E-03   6   5   4   2
  0.2716662721348971E-17   6   5   4   3
  0.6450424882515115E-17   6   5   4   4
  0.1219262821051714E-18   6   5   5   1
  0.2697181298029339E-17   6   5   5   2
 -0.5729041141376774E-02   6   5   5   3
  0.4730815384198974E-03   6   5   5   4
  0.1143776686132642E-16   6   5   5   5
  0.2009045468891916E-02   6   5   6   1
  0.3688806972942907E-02   6   5   6   2
 -0.4455705393526695E-17   6   5   6   3
 -0.1551807828020489E-17   6   5   6   4
  0.6292897238895697E-02   6   5   6   5
  0.3017703821659863E+00   6   6   1   1
 -0.3585248501036597E-02   6   6   2   1
  0.2007690479070801E+00   6   6   2   2
  0.2547580384387031E-18   6   6   3   1
 -0.5278551567003149E-17   6   6   3   2
  0.1913309449366544E+00   6   6   3   3
  0.1003658454106691E-17   6   6   4   1
 -0.1300746768105013E-16   6   6   4   2
 -0.1364243425594160E-02   6   6   4   3
  0.1749225425790408E+00   6   6   4   4
 -0.9531624289498238E-03   6   6   5   1
  0.9683262887152638E-02   6   6   5   2
  0.2520404508364724E-16   6   6   5   3
 -0.4066189631136272E-16   6   6   5   4
  0.1936023259385183E+00   6   6   5   5
 -0.3248171949379313E-20   6   6   6   1
 -0.9342770464356233E-20   6   6   6   2
 -0.3926503975407694E-01   6   6   6   3
  0.3242351551995577E-02   6   6   6   4
  0.7461290499334844E-17   6   6   6   5
  0.1889125669048219E+00   6   6   6   6
 -0.1449881523837246E-19   7   1   1   1
  0.1621854197398080E-20   7   1   2   1
 -0.1376078511541937E-20   7   1   2   2
  0.4143219607146560E-03   7   1   3   1
  0.6571296122093466E-03   7   1   3   2
 -0.4332369478490693E-19   7   1   3   3
  0.5017459710303296E-02   7   1   4   1
  0.7957872539559553E-02   7   1   4   2
 -0.4011041914044745E-18   7   1   4   3
 -0.3462809232596480E-17   7   1   4   4
  0.3115375439064137E-17   7   1   5   1
  0.4940135808165393E-17   7   1   5   2
  0.1289627732053018E-03   7   1   5   3
  0.1561745647202656E-02   7   1   5   4
  0.1938033065887940E-17   7   1   5   5
 -0.3144186309294611E-17   7   1   6   1
 -0.2168404981053114E-17   7   1   6   2
  0.6807297298132776E-21   7   1   6   3
 -0.2955702766308388E-21   7   1   6   4
 -0.8945576106000449E-18   7   1   6   5
 -0.1227959383453710E-20   7   1   6   6
  0.1065081755445782E-01   7   1   7   1
 -0.4457634968979861E-20   7   2   1   1
  0.3538973681498779E-21   7   2   2   1
 -0.3571857157253395E-20   7   2   2   2
  0.3104923524443927E-03   7   2   3   1
  0.1567176324060459E-02   7   2   3   2
 -0.1680349961820311E-18   7   2   3   3
  0.3760077950152265E-02   7   2   4   1
  0.1897858383212762E-01   7   2   4   2
 -0.1395076248412007E-17   7   2   4   3
 -0.9444043717607958E-17   7   2   4   4
  0.2334423524888987E-17   7   2   5   1
  0.1178136958144464E-16   7   2   5   2
  0.3345959544547810E-03   7   2   5   3
  0.4051973778584113E-02   7   2   5   4
  0.5028185199894745E-17   7   2   5   5
 -0.2331028215803621E-17   7   2   6   1
 -0.6515338060313521E-17   7   2   6   2
  0.1401445530560108E-20   7   2   6   3
 -0.1548470667578215E-20   7   2   6   4
 -0.1972664187077219E-17   7   2   6   5
 -0.2109180348502447E-20   7   2   6   6
  0.6926030070826383E-02   7   2   7   1
  0.1645757915705702E-01   7   2   7   2
  0.9380749745023500E-02   7   3   1   1
 -0.1428534922305644E-03   7   3   2   1
  0.4346943591390581E-02   7   3   2   2
 -0.1555746157377078E-19   7   3   3   1
 -0.5726458161701525E-18   7   3   3   2
  0.3293377658016168E-02   7   3   3   3
 -0.2718700554429665E-18   7   3   4   1
 -0.3983043683375769E-17   7   3   4   2
  0.1859545588910628E-02   7   3   4   3
  0.2986269832134658E-02   7   3   4   4
 -0.3790190680040809E-04   7   3   5   1
  0.5638548118557221E-03   7   3   5   2
  0.2501159504636713E-17   7   3   5   3
  0.2537152637015887E-17   7   3   5   4
  0.4023820024025039E-02   7   3   5   5
  0.4035886372068428E-22   7   3   6   1
  0.1577171941934837E-21   7   3   6   2
 -0.2317172952938049E-02   7   3   6   3
 -0.3815959400760744E-02   7   3   6   4
 -0.2092927931486140E-17   7   3   6   5
  0.3026212006956288E-02   7   3   6   6
 -0.5638635982011417E-18   7   3   7   1
 -0.9933987590670487E-18   7   3   7   2
  0.4198645311865142E-02   7   3   7   3
  0.1136013495806675E+00   7   4   1   1
 -0.1729962950809199E-02   7   4   2   1
  0.5264170476298806E-01   7   4   2   2
  0.2784470609743648E-19   7   4   3   1
 -0.4359164171678838E-17   7   4   3   2
  0.3616387733670828E-01   7   4   3   3
 -0.6756717954877110E-18   7   4   4   1
 -0.1705222311116170E-16   7   4   4   2
  0.1535539138448979E-03   7   4   4   3
  0.3988296850846830E-01   7   4   4   4
 -0.4589939910177440E-03   7   4   5   1
  0.6828310032291907E-02   7   4   5   2
  0.1300924433508122E-16   7   4   5   3
 -0.8099037399992275E-17   7   4   5   4
  0.4872866216705703E-01   7   4   5   5
 -0.9269090407917258E-21   7   4   6   1
 -0.4351263871890054E-20   7   4   6   2
 -0.2405377820655422E-01   7   4   6   3
  0.2317172952938032E-02   7   4   6   4
  0.4780699366266408E-17   7   4   6   5
  0.3664757912874861E-01   7   4   6   6
 -0.2115961906243716E-17   7   4   7   1
 -0.3863058290272700E-17   7   4   7   2
  0.2317172950477208E-02   7   4   7   3
  0.3206838293178253E-01   7   4   7   4
  0.7052459164172288E-16   7   5   1   1
 -0.1073878133345797E-17   7   5   2   1
  0.3267962301643891E-16   7   5   2   2
  0.9087499186640282E-04   7   5   3   1
  0.6086306894738636E-03   7   5   3   2
  0.2276950464158128E-16   7   5   3   3
  0.1100500706207648E-02   7   5   4   1
  0.7370548154439676E-02   7   5   4   2
  0.1721157569230246E-17   7   5   4   3
  0.1733617919480301E-16   7   5   4   4
  0.3982202493448810E-18   7   5   5   1
  0.8814129021066767E-17   7   5   5   2
  0.4730815384199001E-03   7   5   5   3
  0.5729041141376767E-02   7   5   5   4
  0.3736352007739798E-16   7   5   5   5
 -0.5422449362312367E-18   7   5   6   1
 -0.1860095529697343E-17   7   5   6   2
 -0.1488695025535745E-16   7   5   6   3
  0.1990839447389008E-17   7   5   6   4
 -0.2263806507275421E-17   7   5   6   5
  0.2275075419388989E-16   7   5   6   6
  0.2009045468891914E-02   7   5   7   1
  0.3688806972942900E-02   7   5   7   2
  0.2315833418753354E-17   7   5   7   3
  0.1542807036746732E-16   7   5   7   4
  0.6292897238895688E-02   7   5   7   5
 -0.9712025107780201E-16   7   6   1   1
  0.1040199440083079E-17   7   6   2   1
 -0.5986465420132620E-16   7   6   2   2
  0.6600325127751010E-22   7   6   3   1
  0.1200746770975227E-20   7   6   3   2
 -0.1364243416101053E-02   7   6   3   3
 -0.4841229359524369E-22   7   6   4   1
 -0.4515182014267616E-20   7   6   4   2
 -0.8204201203114967E-02   7   6   4   3
  0.1364243416100954E-02   7   6   4   4
  0.3396331647895563E-18   7   6   5   1
 -0.5657474500034664E-17   7   6   5   2
 -0.4998389263801988E-17   7   6   5   3
  0.1993049014737627E-17   7   6   5   4
 -0.5434021905054790E-16   7   6   5   5
 -0.2772000019092274E-21   7   6   6   1
 -0.6101682374661449E-21   7   6   6   2
  0.1080697655872157E-03   7   6   6   3
  0.1308730326844706E-02   7   6   6   4
  0.8122679134344750E-18   7   6   6   5
 -0.1631571935526268E-09   7   6   6   6
 -0.7559269363631095E-21   7   6   7   1
 -0.1678852719261395E-20   7   6   7   2
 -0.1308730326844696E-02   7   6   7   3
  0.1080697655871982E-03   7   6   7   4
  0.2481917175018895E-18   7   6   7   5
  0.8621287979496291E-02   7   6   7   6
  0.3017703821659858E+00   7   7   1   1
 -0.3585248501036531E-02   7   7   2   1
  0.2007690479070799E+00   7   7   2   2
  0.2546612138483008E-18   7   7   3   1
 -0.5287581931030454E-17   7   7   3   2
  0.1749225425790407E+00   7   7   3   3
  0.1003526447601102E-17   7   7   4   1
 -0.1300986917459078E-16   7   7   4   2
  0.1364243425594114E-02   7   7   4   3
  0.1913309449366544E+00   7   7   4   4
 -0.9531624289498298E-03   7   7   5   1
  0.9683262887152651E-02   7   7   5   2
  0.2919014311842876E-16   7   7   5   3
 -0.3066511781710492E-16   7   7   5   4
  0.1936023259385183E+00   7   7   5   5
 -0.1736318101894556E-20   7   7   6   1
 -0.5985065020882853E-20   7   7   6   2
 -0.3664757912874857E-01   7   7   6   3
  0.3026212006956262E-02   7   7   6   4
  0.6964907059476082E-17   7   7   6   5
  0.1716699898498771E+00   7   7   6   6
 -0.1782359350685769E-20   7   7   7   1
 -0.3329516829647335E-20   7   7   7   2
  0.3242351551995645E-02   7   7   7   3
  0.3926503975407698E-01   7   7   7   4
  0.2437529000091772E-16   7   7   7   5
  0.1631571162896694E-09   7   7   7   6
  0.1889125669048223E+00   7   7   7   7
  0.4453507694629518E-01   8   1   1   1
 -0.5324081420458435E-02   8   1   2   1
 -0.2096319395043574E-03   8   1   2   2
  0.4520555703855162E-17   8   1   3   1
  0.3189797360806027E-17   8   1   3   2
  0.3953878550533083E-03   8   1   3   3
 -0.6059382380795448E-18   8   1   4   1
 -0.5459696164164560E-17   8   1   4   2
  0.7030373462210693E-19   8   1   4   3
  0.3953878550533085E-03   8   1   4   4
  0.4742842072143226E-02   8   1   5   1
  0.7501171727933861E-02   8   1   5   2
  0.1022109790393472E-17   8   1   5   3
 -0.2665409804162670E-17   8   1   5   4
  0.4012901700470278E-02   8   1   5   5
 -0.1733924380409966E-18   8   1   6   1
 -0.1295014289349776E-18   8   1   6   2
 -0.7485045944190708E-03   8   1   6   3
  0.6180854636994977E-04   8   1   6   4
  0.1040818156044384E-18   8   1   6   5
  0.1551591006541398E-02   8   1   6   6
 -0.1003602517480610E-17   8   1   7   1
 -0.7518106349624557E-18   8   1   7   2
  0.6180854636995011E-04   8   1   7   3
  0.7485045944190707E-03   8   1   7   4
  0.2444986401057793E-18   8   1   7   5
 -0.4472333961502706E-18   8   1   7   6
  0.1551591006541397E-02   8   1   7   7
  0.8730347465589348E-02   8   1   8   1
 -0.6986546697111169E-01   8   2   1   1
  0.9719082962945406E-03   8   2   2   1
 -0.3377724766947564E-01   8   2   2   2
  0.2528457129470253E-17   8   2   3   1
  0.9883636413152553E-17   8   2   3   2
 -0.2217495488372379E-01   8   2   3   3
 -0.2360578117424883E-17   8   2   4   1
 -0.8802154109173679E-17   8   2   4   2
  0.7589415207398531E-18   8   2   4   3
 -0.2217495488372379E-01   8   2   4   4
  0.4114570003411222E-02   8   2   5   1
  0.7775669364808703E-02   8   2   5   2
 -0.8419981400546188E-17   8   2   5   3
 -0.1525467009954536E-17   8   2   5   4
 -0.2388169909119888E-01   8   2   5   5
 -0.2718815460785798E-18   8   2   6   1
 -0.6464470850026739E-18   8   2   6   2
  0.1653338043330060E-01   8   2   6   3
 -0.1365261106989997E-02   8   2   6   4
 -0.3395858154656661E-17   8   2   6   5
 -0.2318736674293048E-01   8   2   6   6
 -0.1590189763533775E-17   8   2   7   1
 -0.3792294450325074E-17   8   2   7   2
 -0.1365261106990004E-02   8   2   7   3
 -0.1653338043330059E-01   8   2   7   4
 -0.1173760837234987E-16   8   2   7   5
  0.9540979117872439E-17   8   2   7   6
 -0.2318736674293044E-01   8   2   7   7
  0.3623076572962054E-02   8   2   8   1
  0.2084142448607686E-01   8   2   8   2
  0.1293182587712244E-15   8   3   1   1
 -0.1422893072584150E-17   8   3   2   1
  0.8839920678149784E-16   8   3   2   2
 -0.1008433243525662E-02   8   3   3   1
 -0.1650024799814859E-02   8   3   3   2
  0.7861444653826874E-16   8   3   3   3
 -0.1882291614578255E-18   8   3   4   1
 -0.2752457646866204E-17   8   3   4   2
 -0.3835615243994788E-18   8   3   4   3
  0.7446201721519456E-16   8   3   4   4
 -0.1920553850457241E-17   8   3   5   1
 -0.6071866563608090E-17   8   3   5   2
 -0.3830785879358300E-03   8   3   5   3
  0.8364387191926040E-18   8   3   5   4
  0.8606194115071283E-16   8   3   5   5
  0.1844012741948008E-02   8   3   6   1
  0.5826726425011885E-02   8   3   6   2
 -0.1685899103342622E-16   8   3   6   3
  0.3878577070586412E-17   8   3   6   4
 -0.2347858525774614E-02   8   3   6   5
  0.7357031125734020E-16   8   3   6   6
 -0.1522712725042537E-03   8   3   7   1
 -0.4811480024446248E-03   8   3   7   2
  0.1015451811432521E-17   8   3   7   3
  0.1613346509826743E-16   8   3   7   4
  0.1938768628040970E-03   8   3   7   5
  0.1627658939753686E-17   8   3   7   6
  0.7273287932232968E-16   8   3   7   7
 -0.1097041117539166E-17   8   3   8   1
 -0.1247301198172052E-16   8   3   8   2
  0.5528548600043271E-02   8   3   8   3
 -0.1378500439624233E-16   8   4   1   1
  0.4224481797041813E-18   8   4   2   1
  0.1026633571129004E-16   8   4   2   2
 -0.1695248947006577E-18   8   4   3   1
 -0.9422071921287181E-18   8   4   3   2
  0.1445191408043758E-16   8   4   3   3
 -0.1008433243525663E-02   8   4   4   1
 -0.1650024799814861E-02   8   4   4   2
  0.2076214661867757E-17   8   4   4   3
  0.1368479102619383E-16   8   4   4   4
 -0.1170897781928649E-17   8   4   5   1
 -0.1277675343497038E-16   8   4   5   2
  0.5586582742650947E-18   8   4   5   3
 -0.3830785879358282E-03   8   4   5   4
  0.8642445175999958E-17   8   4   5   5
 -0.1522712725042529E-03   8   4   6   1
 -0.4811480024446231E-03   8   4   6   2
  0.9587601150929847E-17   8   4   6   3
 -0.1060558342347320E-17   8   4   6   4
  0.1938768628040973E-03   8   4   6   5
  0.1381819270503019E-16   8   4   6   6
 -0.1844012741948007E-02   8   4   7   1
 -0.5826726425011882E-02   8   4   7   2
 -0.3350324074483949E-18   8   4   7   3
 -0.1245072640883373E-16   8   4   7   4
  0.2347858525774617E-02   8   4   7   5
 -0.4187159660227673E-18   8   4   7   6
  0.1056287483564673E-16   8   4   7   7
 -0.6420053967249735E-18   8   4   8   1
  0.1012944973648884E-16   8   4   8   2
 -0.9893497795497469E-18   8   4   8   3
  0.5528548600043272E-02   8   4   8   4
  0.9104996750500505E-01   8   5   1   1
 -0.1723648379238069E-02   8   5   2   1
  0.3608989460349324E-01   8   5   2   2
 -0.2429484111618998E-18   8   5   3   1
 -0.4323022859531536E-17   8   5   3   2
  0.2401343856764607E-01   8   5   3   3
 -0.7008620283048269E-19   8   5   4   1
 -0.9978820324240839E-17   8   5   4   2
 -0.7589415207398531E-18   8   5   4   3
  0.2401343856764608E-01   8   5   4   4
 -0.1273693731192162E-02   8   5   5   1
  0.4401328886840082E-02   8   5   5   2
  0.1355271647632157E-16   8   5   5   3
 -0.1002512882924968E-16   8   5   5   4
  0.3816594894971315E-01   8   5   5   5
 -0.4050017842923591E-18   8   5   6   1
 -0.1249690264146632E-17   8   5   6   2
 -0.1762814070810334E-01   8   5   6   3
  0.1455662076755106E-02   8   5   6   4
  0.3600815341934305E-17   8   5   6   5
  0.2605456894877763E-01   8   5   6   6
 -0.1457607146465991E-17   8   5   7   1
 -0.4428399699505317E-17   8   5   7   2
  0.1455662076755114E-02   8   5   7   3
  0.1762814070810332E-01   8   5   7   4
  0.1125610997315064E-16   8   5   7   5
 -0.7806255641895632E-17   8   5   7   6
  0.2605456894877760E-01   8   5   7   7
 -0.6975935242012842E-04   8   5   8   1
 -0.1651946171592708E-01   8   5   8   2
  0.1238212167211119E-16   8   5   8   3
 -0.9591849326356039E-17   8   5   8   4
  0.2036634076822651E-01   8   5   8   5
 -0.3888532714711201E-17   8   6   1   1
  0.5832547249681986E-19   8   6   2   1
 -0.1797394385338559E-17   8   6   2   2
  0.1895293565241809E-02   8   6   3   1
  0.1679800198691321E-01   8   6   3   2
 -0.3388941057995523E-17   8   6   3   3
 -0.1565058398911160E-03   8   6   4   1
 -0.1387112507354011E-02   8   6   4   2
  0.4477738415982507E-17   8   6   4   3
 -0.1961102293820659E-17   8   6   4   4
 -0.3449741207748898E-18   8   6   5   1
 -0.3430335275049191E-17   8   6   5   2
 -0.4844738187134199E-02   8   6   5   3
  0.4000593010683619E-03   8   6   5   4
  0.1745381355301173E-18   8   6   5   5
 -0.3438639091776508E-02   8   6   6   1
 -0.6174830504476364E-02   8   6   6   2
  0.5423726830656658E-17   8   6   6   3
  0.3703876995091727E-17   8   6   6   4
 -0.7520621379134007E-03   8   6   6   5
 -0.1340168985032882E-17   8   6   6   6
  0.1057081859153141E-17   8   6   7   1
  0.3969751758123582E-17   8   6   7   2
  0.7275585105005328E-18   8   6   7   3
 -0.8892491972472077E-18   8   6   7   4
  0.1935003083528088E-17   8   6   7   5
 -0.2611243578549020E-18   8   6   7   6
 -0.1253117958216161E-17   8   6   7   7
  0.3899356916936406E-19   8   6   8   1
  0.1139503151626626E-17   8   6   8   2
  0.1340515505057682E-03   8   6   8   3
 -0.1106944638306452E-04   8   6   8   4
 -0.7937797552885382E-18   8   6   8   5
  0.1305617698336332E-01   8   6   8   6
 -0.2270645142576453E-16   8   7   1   1
  0.3455553390279925E-18   8   7   2   1
 -0.1052018453655466E-16   8   7   2   2
 -0.1565058398911168E-03   8   7   3   1
 -0.1387112507354012E-02   8   7   3   2
 -0.7049912022034762E-17   8   7   3   3
 -0.1895293565241809E-02   8   7   4   1
 -0.1679800198691321E-01   8   7   4   2
  0.7139193819626465E-18   8   7   4   3
 -0.1600538885274084E-16   8   7   4   4
 -0.1085064815420216E-17   8   7   5   1
 -0.1179446883217846E-16   8   7   5   2
  0.4000593010683612E-03   8   7   5   3
  0.4844738187134199E-02   8   7   5   4
 -0.3724113956116595E-17   8   7   5   5
  0.1110968906170981E-17   8   7   6   1
  0.2510710049904123E-17   8   7   6   2
  0.4801750645548120E-17   8   7   6   3
 -0.5337220935235549E-18   8   7   6   4
 -0.4815947603892158E-18   8   7   6   5
 -0.7324462223364799E-17   8   7   6   6
 -0.3438639091776506E-02   8   7   7   1
 -0.6174830504476344E-02   8   7   7   2
  0.4000755540660240E-17   8   7   7   3
 -0.1825432163575448E-17   8   7   7   4
 -0.7520621379134094E-03   8   7   7   5
 -0.4352551217724026E-19   8   7   7   6
 -0.7846710933325876E-17   8   7   7   7
  0.2291425131615820E-18   8   7   8   1
  0.6661737601961024E-17   8   7   8   2
 -0.1106944638306132E-04   8   7   8   3
 -0.1340515505057699E-03   8   7   8   4
 -0.4574738874858402E-17   8   7   8   5
 -0.5532819049288837E-17   8   7   8   6
  0.1305617698336331E-01   8   7   8   7
  0.2689828247883802E+00   8   8   1   1
 -0.2564626958510355E-02   8   8   2   1
  0.1976693235666968E+00   8   8   2   2
 -0.2583096160279690E-17   8   8   3   1
 -0.1199121197962142E-16   8   8   3   2
  0.1690907078988985E+00   8   8   3   3
  0.2500054043437554E-17   8   8   4   1
  0.1405681922011435E-16   8   8   4   2
 -0.2298508605669269E-16   8   8   4   3
  0.1690907078988985E+00   8   8   4   4
 -0.4954278409460919E-02   8   8   5   1
 -0.2157090071861732E-01   8   8   5   2
  0.2589212434568842E-16   8   8   5   3
 -0.4299919482834361E-16   8   8   5   4
  0.1883334980835531E+00   8   8   5   5
  0.1251890266583377E-18   8   8   6   1
  0.3946853972132013E-18   8   8   6   2
 -0.3109249223770029E-01   8   8   6   3
  0.2567494925963311E-02   8   8   6   4
  0.5749043181713707E-17   8   8   6   5
  0.1646726738985048E+00   8   8   6   6
  0.7362812985244983E-18   8   8   7   1
  0.2327805757254792E-17   8   8   7   2
  0.2567494925963358E-02   8   8   7   3
  0.3109249223770021E-01   8   8   7   4
  0.1836381211881407E-16   8   8   7   5
 -0.5204170427930421E-16   8   8   7   6
  0.1646726738985047E+00   8   8   7   7
 -0.3203579655178355E-02   8   8   8   1
 -0.2264386373251798E-01   8   8   8   2
  0.8137222486922389E-16   8   8   8   3
  0.2597297151309145E-16   8   8   8   4
  0.2168505969060062E-01   8   8   8   5
 -0.1052846821758524E-17   8   8   8   6
 -0.6160153750736896E-17   8   8   8   7
  0.1891944756297055E+00   8   8   8   8
 -0.5900291477131309E-01   9   1   1   1
  0.6513587822571448E-02   9   1   2   1
 -0.2134585555696510E-02   9   1   2   2
  0.1168430877194777E-17   9   1   3   1
  0.1195264219138384E-17   9   1   3   2
 -0.6023800922240410E-03   9   1   3   3
 -0.2161637098942960E-17   9   1   4   1
 -0.9756973930141714E-18   9   1   4   2
 -0.9910285482875314E-19   9   1   4   3
 -0.6023800922240414E-03   9   1   4   4
  0.3796309556340687E-02   9   1   5   1
  0.2214806590019593E-02   9   1   5   2
 -0.5009743368018025E-18   9   1   5   3
 -0.7708415630229235E-18   9   1   5   4
 -0.1709889047101820E-03   9   1   5   5
  0.6234138264316387E-19   9   1   6   1
  0.4603563926420303E-19   9   1   6   2
  0.1094662880653021E-02   9   1   6   3
 -0.9039292734177126E-04   9   1   6   4
 -0.1948629555498200E-18   9   1   6   5
 -0.2259672402293357E-02   9   1   6   6
  0.1344422736080544E-18   9   1   7   1
  0.1003386176480137E-18   9   1   7   2
 -0.9039292734177174E-04   9   1   7   3
 -0.1094662880653021E-02   9   1   7   4
 -0.6502928996412861E-18   9   1   7   5
  0.6640738306473715E-18   9   1   7   6
 -0.2259672402293354E-02   9   1   7   7
  0.2312975152353972E-03   9   1   8   1
  0.2029006870008760E-02   9   1   8   2
 -0.1537924259948932E-17   9   1   8   3
  0.2304227953726935E-19   9   1   8   4
 -0.1426567527912752E-02   9   1   8   5
  0.1421197889030286E-19   9   1   8   6
  0.1681591485627391E-18   9   1   8   7
 -0.3250003552335110E-02   9   1   8   8
  0.4142755786179807E-02   9   1   9   1
  0.8123622610590864E-01   9   2   1   1
 -0.1364775763137426E-02   9   2   2   1
  0.3491473064866867E-01   9   2   2   2
  0.4618347046078894E-18   9   2   3   1
 -0.2691393744464420E-17   9   2   3   2
  0.2231164646332384E-01   9   2   3   3
  0.2947325281813725E-18   9   2   4   1
 -0.3992091344962865E-17   9   2   4   2
 -0.1897353801849633E-18   9   2   4   3
  0.2231164646332384E-01   9   2   4   4
  0.2999599135835761E-03   9   2   5   1
  0.4455848908503349E-02   9   2   5   2
  0.1014254173250392E-16   9   2   5   3
 -0.6608769462293637E-17   9   2   5   4
  0.3387455574608268E-01   9   2   5   5
  0.9473375885851910E-19   9   2   6   1
  0.2238861398136889E-18   9   2   6   2
 -0.1944405491309985E-01   9   2   6   3
  0.1605613083309033E-02   9   2   6   4
  0.3783265465352523E-17   9   2   6   5
  0.2531978377445669E-01   9   2   6   6
  0.2111710582884137E-18   9   2   7   1
  0.5035754606383464E-18   9   2   7   2
  0.1605613083309041E-02   9   2   7   3
  0.1944405491309985E-01   9   2   7   4
  0.1226673626672438E-16   9   2   7   5