[Molden Format]
made by pyscf v[1.5.2]
[Atoms] (AU)
C   1   6     0.00000000000000    -1.07506519226506     0.00000000000000
H   2   1     0.00000000000000    -2.30225333755761     1.66749433231621
H   3   1     0.00000000000000    -2.30225333755761    -1.66749433231621
C   4   6    -2.37557471119074     0.53743810982630     0.00000000000000
C   5   6     2.37557471119074     0.53762708243876     0.00000000000000
H   6   1    -2.45078581094843     1.74686282954794     1.67675399032658
H   7   1    -2.45040786572352     1.74705180216040    -1.67656501771412
H   8   1    -4.05818685250347    -0.66518359584690    -0.00018897261246
H   9   1     4.05818685250347    -0.66518359584690     0.00000000000000
H   10   1     2.45059683833597     1.74705180216040     1.67656501771412
H   11   1     2.45059683833597     1.74705180216040    -1.67656501771412
[GTO]
1 0
 s    6 1.00
             3047.5249  0.0018347001629433
             457.36951    0.01403730124668
             103.94869   0.068842606114048
             29.210155    0.23218442062076
              9.286663    0.46794134155879
              3.163927    0.36231203217765
 s    3 1.00
             7.8682724   -0.11933240861517
             1.8812885   -0.16085421161283
             0.5442493     1.1434564825515
 s    1 1.00
             0.1687144                   1
 p    3 1.00
             7.8682724   0.068999095584993
             1.8812885    0.31642397975315
             0.5442493    0.74430825237435
 p    1 1.00
             0.1687144                   1

2 0
 s    3 1.00
             18.731137    0.03349459952309
             2.8253937    0.23472694665786
             0.6401217    0.81375731841339
 s    1 1.00
             0.1612778                   1

3 0
 s    3 1.00
             18.731137    0.03349459952309
             2.8253937    0.23472694665786
             0.6401217    0.81375731841339
 s    1 1.00
             0.1612778                   1

4 0
 s    6 1.00
             3047.5249  0.0018347001629433
             457.36951    0.01403730124668
             103.94869   0.068842606114048
             29.210155    0.23218442062076
              9.286663    0.46794134155879
              3.163927    0.36231203217765
 s    3 1.00
             7.8682724   -0.11933240861517
             1.8812885   -0.16085421161283
             0.5442493     1.1434564825515
 s    1 1.00
             0.1687144                   1
 p    3 1.00
             7.8682724   0.068999095584993
             1.8812885    0.31642397975315
             0.5442493    0.74430825237435
 p    1 1.00
             0.1687144                   1

5 0
 s    6 1.00
             3047.5249  0.0018347001629433
             457.36951    0.01403730124668
             103.94869   0.068842606114048
             29.210155    0.23218442062076
              9.286663    0.46794134155879
              3.163927    0.36231203217765
 s    3 1.00
             7.8682724   -0.11933240861517
             1.8812885   -0.16085421161283
             0.5442493     1.1434564825515
 s    1 1.00
             0.1687144                   1
 p    3 1.00
             7.8682724   0.068999095584993
             1.8812885    0.31642397975315
             0.5442493    0.74430825237435
 p    1 1.00
             0.1687144                   1

6 0
 s    3 1.00
             18.731137    0.03349459952309
             2.8253937    0.23472694665786
             0.6401217    0.81375731841339
 s    1 1.00
             0.1612778                   1

7 0
 s    3 1.00
             18.731137    0.03349459952309
             2.8253937    0.23472694665786
             0.6401217    0.81375731841339
 s    1 1.00
             0.1612778                   1

8 0
 s    3 1.00
             18.731137    0.03349459952309
             2.8253937    0.23472694665786
             0.6401217    0.81375731841339
 s    1 1.00
             0.1612778                   1

9 0
 s    3 1.00
             18.731137    0.03349459952309
             2.8253937    0.23472694665786
             0.6401217    0.81375731841339
 s    1 1.00
             0.1612778                   1

10 0
 s    3 1.00
             18.731137    0.03349459952309
             2.8253937    0.23472694665786
             0.6401217    0.81375731841339
 s    1 1.00
             0.1612778                   1

11 0
 s    3 1.00
             18.731137    0.03349459952309
             2.8253937    0.23472694665786
             0.6401217    0.81375731841339
 s    1 1.00
             0.1612778                   1

[5d]
[9g]


[MO]
 Sym= A
 Ene=               0
 Spin= Alpha
 Occup=    1.00000
   1      0.99501123275827
   2     0.038764558774917
   3    -0.036648656873193
   4    -8.4285897533351e-06
   5    0.0055060860255301
   6    3.5482073019007e-05
   7    5.3534243332483e-05
   8    -0.0081388834421513
   9    0.00014899026303833
  10    0.0031319044225093
  11    0.0024476252438425
  12    0.0031806329166222
  13    0.0025650187437778
  14    -0.00033139695945352
  15    0.00069898926780284
  16    0.0097895622209318
  17    0.0021618565348943
  18    -0.0013127562061233
  19    -1.0398157260791e-05
  20      0.00493689204528
  21    -0.0023727254891601
  22    -3.3086056697939e-05
  23    -0.00033071955228687
  24    0.00069987692614249
  25    0.0097353942565965
  26    -0.0021591041147142
  27    -0.0013085110918427
  28    -1.0408973064728e-05
  29    -0.0049197399632537
  30    -0.0023421227578723
  31    -3.2903909388248e-05
  32    -0.00028900888429783
  33    0.00028758280426426
  34    -0.00029671211671206
  35    0.00027850967725641
  36    -5.1949984883907e-05
  37    -0.00018094724320498
  38    -4.80881125229e-05
  39    -0.00018309273537688
  40    -0.00028903985064441
  41    0.00028278260280097
  42    -0.00029672160646719
  43    0.00027402406812517
 Sym= A
 Ene=               1
 Spin= Alpha
 Occup=    1.00000
   1    -0.00022978207686716
   2     0.001478971481949
   3    0.0054974046513846
   4    -0.0026121918857101
   5    0.0017592217179162
   6    -6.8420601252885e-08
   7    -0.0029942090717036
   8    0.0022239212438454
   9    -0.00017219279509814
  10    7.5244605216389e-05
  11    0.00024590992080254
  12    2.2789020172354e-05
  13    0.00021272424983292
  14      0.99546517581284
  15     0.034026507090119
  16    -0.029065413904754
  17    -0.00037204407482754
  18    0.00071029949801863
  19    -0.00032428896868607
  20    -0.0022697152759471
  21    0.00063921463878766
  22    0.00048010515994556
  23    1.3617479580216e-06
  24    -9.6991603172525e-05
  25    0.00017462633403014
  26    -2.0857485974889e-05
  27    -0.00015482637325294
  28    1.2106855643298e-06
  29    -0.00037226624134622
  30    0.00011064968756951
  31    6.2024388776652e-05
  32    0.0030362678819379
  33    0.0039959163077139
  34    0.0030743943963799
  35     0.004465357480016
  36    0.0029680067611089
  37    0.0036242409948603
  38    0.00011551667938255
  39    0.00041849626879556
  40    -6.2966447328714e-05
  41    -0.00011525660736699
  42    -4.0404437487846e-05
  43    -8.9584410661018e-05
 Sym= A
 Ene=               2
 Spin= Alpha
 Occup=    1.00000
   1    0.00024277609752458
   2    -0.0015504490354662
   3    -0.0055375000704008
   4    -0.0027544124187173
   5    -0.0018562458529311
   6    7.4715568918136e-06
   7    -0.0027753528034589
   8    -0.002412908692338
   9    -0.00014360651730566
  10    -4.7017041697604e-05
  11    -0.00017622304760892
  12    -9.2517025872812e-05
  13    -0.00020508157683188
  14    7.5382937323999e-06
  15    0.00018718704011069
  16    -0.00021271792797225
  17    1.2721772378435e-05
  18    0.00016159288855137
  19    6.1389134782171e-07
  20    -0.00053729279587748
  21    -0.00033972847398441
  22    5.3281460757396e-05
  23     -0.99570629952303
  24    -0.034043949065684
  25     0.031440333578731
  26    -9.7486871840536e-05
  27    -0.0014657377425028
  28    -0.00034651962218133
  29    -0.0022856233704444
  30    0.00080550849463303
  31    0.00036801569175252
  32    7.6065401658759e-05
  33    0.00017441755255198
  34    9.5401549779559e-05
  35    0.00019638419465036
  36    -0.00015198355225516
  37    -0.00055409841187675
  38    -0.0031799401847201
  39    -0.0035989559420118
  40    -0.0033679108211492
  41    -0.0054065669993405
  42    -0.003364871208596
  43    -0.0050338710243037
 Sym= A
 Ene=               3
 Spin= Alpha
 Occup=    1.00000
   1    0.0066141978232416
   2     -0.14143804250763
   3     -0.12480516059295
   4      0.17787126970413
   5     -0.13339815930754
   6    -0.0010870458957238
   7     0.095097082822394
   8    -0.086166108226713
   9     0.010788029273545
  10    -0.018665789208824
  11    -0.016264641934857
  12    -0.015126848197568
  13    -0.014016909070571
  14     -0.26699649553242
  15      0.82841332789038
  16      0.85706864844928
  17      0.12125845165952
  18    -0.022953678615589
  19     0.031293422054644
  20      0.13040502752458
  21     0.047750250606986
  22    -0.025413907205233
  23    0.0019523168661774
  24    -0.0051505719106191
  25    -0.0092335989104924
  26     0.011790153299005
  27     0.010292613593274
  28    -1.8044047229849e-05
  29     0.016125636371573
  30    0.00069540516034026
  31    -0.0041236872706958
  32     -0.19337999353972
  33     -0.18907461790864
  34     -0.19164991273989
  35     -0.21581608862625
  36     -0.15558906371816
  37     -0.12223940970546
  38    -0.0083435896732409
  39    -0.0092075437914134
  40    0.0020262208336677
  41    -0.00060124616960742
  42    0.00054343157935776
  43    -0.0022967037817439
 Sym= A
 Ene=               4
 Spin= Alpha
 Occup=    1.00000
   1    0.0084491732774155
   2      -0.1176068545958
   3    -0.038487324968902
   4     -0.15263850587809
   5    -0.094458254610761
   6    0.0011851272083418
   7    -0.055681784285541
   8    -0.050504531062221
   9    -0.0052128754587469
  10    -0.014208207944918
  11    -0.010994304284174
  12    -0.016071516470681
  13    -0.012182576974351
  14    0.0010249766685708
  15    -0.0042418740679104
  16    -0.0081828437928698
  17    -0.0028800594827206
  18      0.01337981492359
  19    -2.6296353065095e-05
  20    -0.015505236664864
  21    -0.00021871874954792
  22     0.002135127777865
  23     -0.26396650206229
  24      0.90569868797319
  25      0.65989585674855
  26      0.14051621329181
  27    -0.078082161566148
  28    -0.021779798459543
  29    0.0070820968239918
  30     0.031303079405597
  31    0.0094555063657762
  32     0.004060292019471
  33    -0.0020786966370211
  34    0.0048219614336603
  35     -0.00120975931055
  36    -0.006526091891832
  37    -0.0065933621737286
  38     -0.20488567583199
  39     -0.13118337833694
  40     -0.17657275664331
  41     -0.16980344246561
  42     -0.17991965043758
  43     -0.15850729091481
 Sym= A
 Ene=               5
 Spin= Alpha
 Occup=    1.00000
   1     -0.21202674337392
   2      0.72570788821213
   3      0.56804327517681
   4    0.0016071645830716
   5     -0.66189226318887
   6    -0.0042157208162896
   7    -0.0059200250827716
   8      0.10260613660938
   9    -0.013959608896919
  10     -0.19946086185138
  11    -0.050937316669061
  12     -0.20424701691076
  13    -0.061857574315415
  14     0.013278269176767
  15    -0.047783502577203
  16     -0.14891239319806
  17    -0.062780184731141
  18     0.076186888161168
  19    0.0010425475911974
  20     -0.11117719701482
  21     0.039239214576098
  22    0.0030036234218232
  23     0.013186411386441
  24    -0.048064152088755
  25     -0.14273654607711
  26     0.062605712431993
  27     0.075865285983001
  28    0.0010424547601985
  29      0.10930691396017
  30     0.035679754484489
  31     0.002998925488522
  32    0.0036934310055472
  33    -0.013504954435371
  34    0.0043779515947389
  35      -0.0127134755634
  36    -0.0099626049466636
  37    -0.0040927095448391
  38    -0.010463273491264
  39    -0.0039041282097724
  40     0.003671035215559
  41    -0.012972224954268
  42     0.004354278157511
  43    -0.012190581366056
 Sym= A
 Ene=               6
 Spin= Alpha
 Occup=    1.00000
   1    -0.0020197094807589
   2    0.0056961758568894
   3    0.0078733352071052
   4    -0.00068261923274863
   5    -0.0075152663072975
   6      0.67886446049199
   7    0.00017552944399272
   8    0.0097680323365027
   9       1.1099843053368
  10     -0.23416808751199
  11     -0.41645819765486
  12      0.23147767756527
  13      0.42064465657745
  14    0.00014639523748768
  15    -0.00051161703329488
  16    -0.0048495793070241
  17    -0.0011237721296399
  18    0.00063761770066531
  19     -0.10870350828175
  20    -0.0031010793838734
  21    0.00042678313404119
  22     -0.20609892308513
  23    0.00016991184824267
  24    -0.00034016355994258
  25    -0.0052132470283253
  26    0.0010113881883334
  27    0.0004965111462475
  28     -0.10869915344593
  29    0.0031790903994591
  30    0.00065296980908167
  31     -0.20610592726827
  32     0.020511240079368
  33     0.022946254083018
  34    -0.020117371372649
  35    -0.023514915163609
  36    -0.00019975268825993
  37    -8.93085586417e-06
  38    -0.00012671892696957
  39    1.0315020774656e-05
  40     0.020535634318243
  41     0.022923817751094
  42    -0.020103346823531
  43    -0.023565820520333
 Sym= A
 Ene=               7
 Spin= Alpha
 Occup=    1.00000
   1    -0.012074376679367
   2    -0.068538325653738
   3     0.030575644504437
   4     0.018725974713986
   5     -0.10131712383215
   6    -0.00039823472774991
   7    -0.049429296818204
   8    -0.040777122243623
   9    -0.0017648687884185
  10    -0.014777166232911
  11    -0.0032276136508295
  12    -0.015224219391478
  13    -0.0035106089895923
  14     0.043994809278679
  15     -0.13068394149293
  16     -0.18366217209571
  17      0.81474875340501
  18       0.2333868687225
  19    0.00067277037737843
  20       0.4219800891951
  21        0.328217522517
  22     0.006599935568871
  23    0.0029508234825309
  24    -0.0020098151643168
  25    -0.00031571020425181
  26     0.031538900121722
  27    -0.015206383128817
  28    3.3341658665107e-05
  29     0.012078132197274
  30     -0.01585382386056
  31    0.00054918254884491
  32    -0.0098389723465311
  33    -0.057948899856842
  34    -0.0079945507537702
  35      -0.0522337535435
  36      0.25234174163627
  37      0.25891560002344
  38    -0.0085712352576173
  39    -0.0029237821371038
  40    -0.0078894079485111
  41    -0.0019082000565724
  42    -0.0076828788262947
  43    -0.0016700981350592
 Sym= A
 Ene=               8
 Spin= Alpha
 Occup=    1.00000
   1    0.0098987132102471
   2     0.079721223928626
   3     0.035384855749423
   4      0.13016697557787
   5    -0.00062299239762228
   6    0.0010661417185633
   7     0.058793400073651
   8    -0.032035796990637
   9    -0.0054266937860626
  10     0.014628659639889
  11    0.0045223944642956
  12      0.01272770969043
  13    0.0033111961377982
  14    0.0029905682856194
  15     0.013531474523621
  16    0.0095739150935428
  17    -0.0030204105379802
  18    -0.022940983375763
  19    -1.9219723733408e-05
  20    -0.028229031345892
  21    -0.022765319357008
  22    0.0021828374281018
  23    -0.014668657458204
  24      0.12572424034717
  25     -0.12851915296845
  26      0.11627212735951
  27      0.85254073402618
  28    -0.020986217681121
  29     -0.17838338629717
  30      0.52548975293455
  31     0.010560749836637
  32    0.0045602087265458
  33    -0.0060805277613361
  34    0.0053401669311563
  35    -0.0051959452026135
  36    -0.0058559046477548
  37    -0.016707304403532
  38       0.1330692209539
  39       0.2422743158877
  40     -0.13416928227734
  41    -0.098797017122208
  42     -0.13701924219607
  43    -0.086626000853236
 Sym= A
 Ene=               9
 Spin= Alpha
 Occup=    1.00000
   1    -0.0001290681614393
   2    -0.0021859179559893
   3     0.010187520630699
   4    0.00063386297042629
   5    -0.0014984199151242
   6    -0.091440121667854
   7    0.0055565510723897
   8    -0.001155618192004
   9    -0.018059696395393
  10    -0.0088082418292408
  11    -0.0066489819322566
  12    0.0068894306558726
  13    0.0038535645597121
  14    0.00016721096633555
  15     0.000706692480743
  16    -8.3767577683386e-05
  17    -0.00026314887192482
  18    -0.0001801992199167
  19    0.0049903504138084
  20    -0.0047514107686352
  21    -0.0020762977217139
  22    -0.013375158269564
  23    -0.0037936189890186
  24     0.046429725689495
  25    -0.069471218315536
  26     0.014457881066639
  27     0.012075915122536
  28      0.88684426896689
  29    -0.030902586180955
  30     0.011836487858026
  31      0.44050919701159
  32     0.002552095670529
  33    0.00067047045532109
  34     -0.00103128402188
  35    -0.0034932980183349
  36    -0.00092307152044428
  37    -0.0017996737026074
  38    0.0053878918940981
  39     0.031141931175345
  40     -0.17623366741805
  41     -0.12514381235778
  42      0.17359911967026
  43      0.14709006132803
 Sym= A
 Ene=              10
 Spin= Alpha
 Occup=    1.00000
   1    -0.012467623807212
   2     -0.10055723724722
   3     -0.19245822255268
   4      0.14772847011008
   5    -0.036883230509107
   6     0.001947505793808
   7      0.12243372644696
   8    -0.059265871390423
   9    -0.0050752212808154
  10    -0.017129406480113
  11    -0.027842148950274
  12    -0.019125531199026
  13     -0.02912064243285
  14     0.020873963814458
  15     0.018100766073137
  16     -0.26354964824296
  17      0.18734599053029
  18     -0.77192326624325
  19     -0.02918457938235
  20      0.40898129678622
  21     -0.56156364815965
  22    0.0058322645581366
  23    5.335167073882e-06
  24    0.00065735207091917
  25    -0.013667471922178
  26    0.0025044982854784
  27     0.019215172008877
  28    -6.7540104733621e-05
  29     0.035394677520654
  30    -0.0016055953944152
  31    0.0022515216813536
  32      0.15488097849279
  33      0.20401051556159
  34      0.14863982868527
  35      0.21308501365508
  36    -0.024267657993435
  37     0.085293342769033
  38    -0.0058499291837438
  39    -0.019638323230823
  40     0.001061309529658
  41    -0.0089424849624133
  42    0.0018511580533119
  43    -0.0080384937992563
 Sym= A
 Ene=              11
 Spin= Alpha
 Occup=    1.00000
   1     0.010186885525529
   2      0.12258606258569
   3      0.19584860233274
   4      0.11703636770607
   5      0.14343732903903
   6    -0.00017031478173318
   7     0.093416365135425
   8       0.1124602390776
   9    0.00031393850571001
  10     0.018106579365094
  11     0.022290210340846
  12      0.01824177106732
  13     0.022376764435068
  14    -0.0034678867715245
  15    0.0023984294088734
  16     0.006721541294436
  17     0.031684289704828
  18    0.0052546450255831
  19    9.3384623922122e-06
  20     0.028212063553976
  21    0.0064023284680766
  22    -0.00014754512174694
  23     0.035066550614351
  24    -0.082836147164098
  25     -0.15598020441309
  26      0.80881002904245
  27    -0.036612252979189
  28    0.0023086026262188
  29      0.62264279603305
  30    -0.021861678632244
  31    -0.00014803191778291
  32    0.0064643348479363
  33    0.0080440106756731
  34    0.0064173111452933
  35    0.0079914537487768
  36     0.011376562638553
  37     0.015723718425919
  38     -0.16778254811366
  39     -0.19650302549153
  40     0.023290370826014
  41     0.026701023252063
  42     0.023865921410926
  43     0.026261048465152
 Sym= A
 Ene=              12
 Spin= Alpha
 Occup=    1.00000
   1    0.00017946578308466
   2    -0.081551941671393
   3     -0.60726750809983
   4    -3.3497502855867e-06
   5      0.12031192207879
   6      0.15209598002601
   7    -5.2663409715308e-06
   8      0.34213083685786
   9      0.44196986864729
  10    -0.025758061979934
  11    -0.093237534448268
  12      0.10141168067596
  13       1.7825424658431
  14     0.005901787447464
  15     0.010010365007607
  16    -0.063876898078509
  17    -0.025915514824574
  18     0.016370245421499
  19    0.0035185802591245
  20    -0.062423737234034
  21     0.063235415089457
  22     0.022256169685339
  23    0.0059006979672292
  24     0.010009690928673
  25    -0.063855243777885
  26     0.025912776836007
  27     0.016368028556326
  28    0.0035178555562493
  29     0.062406904376127
  30     0.063245968242075
  31     0.022243164648654
  32    -0.015056299293329
  33    -0.053554037220855
  34    0.0020454683656262
  35    -0.025255751906334
  36    0.0023296025026948
  37    -0.024700132820548
  38     0.002332162717561
  39    -0.024686525141193
  40    -0.015057278237894
  41    -0.053556532543562
  42    0.0020418591640238
  43    -0.025267764675707
 Sym= A
 Ene=              13
 Spin= Alpha
 Occup=    0.00000
   1    -0.00086704829600682
   2     0.058748116855667
   3      0.66385884495197
   4    3.1410659733581e-06
   5     -0.10574795418568
   6      0.13038404119837
   7    8.9661951353072e-06
   8     -0.37710057031164
   9       0.4854917861384
  10     0.029939461882831
  11      -1.9328449183811
  12     0.024825126604607
  13      0.10366606323695
  14    -0.0066570116487421
  15    -0.013623729222814
  16     0.072675967613233
  17     0.025758690120478
  18    -0.015911712770562
  19    0.0039896472028528
  20     0.070077569002482
  21    -0.072083552326012
  22     0.026092664969631
  23    -0.0066564153748392
  24    -0.013628484239137
  25      0.07266762451148
  26    -0.025756223257492
  27    -0.015907939510495
  28     0.003988087203297
  29    -0.070082363211351
  30    -0.072064655779739
  31     0.026086042450025
  32    -0.0039520233059766
  33     0.028045450081999
  34     0.015800916678084
  35     0.060928089211573
  36    -0.0044360781028342
  37     0.027179619704877
  38    -0.0044352344144715
  39     0.027195679730311
  40    -0.0039525559288665
  41     0.028034006562126
  42     0.015796698654462
  43     0.060915154762886
 Sym= A
 Ene=              14
 Spin= Alpha
 Occup=    0.00000
   1     0.005333444701493
   2    0.0090502283562375
   3    -0.058919832911033
   4     0.022288547682679
   5    -0.014304410621054
   6    -0.0018155247923638
   7     0.066700238584174
   8    -0.055421483440661
   9    -0.00014553288350216
  10    -0.001288883964236
  11    -0.028982658965971
  12    -0.010117081157867
  13    -0.048022432381966
  14    0.0015049309372716
  15    -0.080151173027224
  16     -0.65017630726876
  17     0.012441597994186
  18     -0.11805816493571
  19     -0.16040350539021
  20     0.039901434972265
  21     -0.32746025305674
  22     -0.44739836078305
  23    0.00017236087736902
  24    0.0022239227200505
  25     0.056533141949233
  26    0.0052971707017469
  27    0.0019097361676629
  28    0.0056057817407474
  29      0.03207539684283
  30     0.016089885951742
  31    0.0035780227666557
  32       0.1039523675243
  33       1.7863564860536
  34    -0.023859601796427
  35    -0.094373607253142
  36    -0.021781682396257
  37    -0.089835626190481
  38    -0.0096201103349746
  39     -0.01474309865369
  40    -0.0045424524050625
  41     -0.10283872492683
  42    -0.0047733767034125
  43    -0.002374012058164
 Sym= A
 Ene=              15
 Spin= Alpha
 Occup=    0.00000
   1    0.0042008119343249
   2    0.00049011928005452
   3    -0.0016196065385143
   4    -0.028341459270523
   5    -0.015071977774104
   6    -2.0337548407624e-07
   7    -0.091380141753975
   8    0.0041945023195307
   9    3.5203636263888e-06
  10    0.00079607872021739
  11    -0.027875165358733
  12    0.00079664341116619
  13    -0.027872262491823
  14    0.0044702774637471
  15     0.013855715507763
  16     -0.10386671511796
  17     -0.00947084404716
  18    0.0057104672983841
  19    4.1410316246129e-07
  20    -0.087007809505101
  21    -0.022660707464072
  22    -7.3220166941462e-06
  23    0.0014494515215958
  24     -0.07895801886612
  25     -0.67927583953766
  26     -0.15328381662273
  27      0.10540568902078
  28    -4.5031468575275e-08
  29     -0.48336927377028
  30      0.33160505519261
  31    -1.0392774273041e-06
  32     0.010290539787558
  33     0.007270601146084
  34     0.010291400814094
  35    0.0072617186387302
  36    -0.0058821538813885
  37    -0.036095547603541
  38     0.068211381126914
  39       1.8362595953513
  40    -0.025244331857346
  41     -0.09726136989053
  42    -0.025244346672417
  43    -0.097262417516353
 Sym= A
 Ene=              16
 Spin= Alpha
 Occup=    0.00000
   1    0.0068728456940896
   2     0.017247094733099
   3     -0.07641003049648
   4    -0.019961504608633
   5    -0.012901237820814
   6    -0.0036250033582007
   7    -0.085502094613092
   8    -0.072639080058206
   9    -0.00097175981632735
  10    0.0018386135803411
  11    -0.036610515778777
  12    -0.0096309495915855
  13    -0.062326045457902
  14    -0.00023798910941226
  15    0.0026055438537889
  16     0.078652308403892
  17    -0.0028751472508424
  18    0.0020940201746733
  19    0.0087316047665671
  20    -0.041778605676755
  21     0.022153858286398
  22    0.0056351605021867
  23    0.0036715178666775
  24    -0.024167808608866
  25     -0.79133680390757
  26    -0.011923563360486
  27    -0.082351808012312
  28      -0.1094748129849
  29    -0.051989516759302
  30     -0.39983808510818
  31     -0.54496813016681
  32    0.00050679288040033
  33     -0.13671825263224
  34    -0.0062842654633571
  35    -0.0028657700717677
  36    -0.012647152062347
  37    -0.019746705549166
  38    -0.017428982001396
  39     -0.11145137141102
  40     -0.20661471556509
  41       2.1148590522933
  42    -0.020255805318147
  43     -0.11774259653349
 Sym= A
 Ene=              17
 Spin= Alpha
 Occup=    0.00000
   1    0.0041972677516588
   2    0.00047542238843455
   3    -0.0016622212157171
   4     0.028337072154627
   5    -0.015081845505964
   6    -1.0294048992822e-06
   7     0.091291119586312
   8    0.0041493304926825
   9    -1.1763740628755e-05
  10    0.00078716868804056
  11    -0.027847082410392
  12    0.00078430830142869
  13    -0.027872888795137
  14    0.0014423967338598
  15    -0.079073438412242
  16     -0.67905175126285
  17      0.15340044034983
  18      0.10547432856226
  19    1.6683328801729e-05
  20      0.48321422116637
  21      0.33145737012899
  22    5.3744535114591e-05
  23    0.0044680239311627
  24     0.013844144219149
  25     -0.10377138748641
  26    0.0094712911457556
  27    0.0057005912763719
  28    1.136867931404e-07
  29     0.086936924326734
  30    -0.022653479742649
  31    -4.7043943616445e-07
  32    -0.025248305627111
  33    -0.097211061216515
  34    -0.025251658979288
  35    -0.097208041176252
  36     0.068894785250475
  37        1.835597229148
  38    -0.0058806196018106
  39    -0.036068669249712
  40     0.010282333763527
  41    0.0072601955033923
  42     0.010281214551267
  43    0.0072667845009207
 Sym= A
 Ene=              18
 Spin= Alpha
 Occup=    0.00000
   1    0.00020346298381381
   2    -0.0015215696561423
   3     0.013883201410249
   4    -0.00056315886303037
   5    -0.0018303306751202
   6     0.092734704069721
   7    -0.006244057675161
   8    0.0034694684604854
   9     0.034359217383014
  10    0.0051817273457872
  11    0.0045607113613254
  12    -0.0058521999149106
  13    -0.0029918769866505
  14    -0.0059432562065028
  15     0.024211687552778
  16    0.0041298281401707
  17     0.002729818158521
  18     0.019381445179235
  19     -0.86904960836567
  20    -0.015874861391423
  21     0.019444949863122
  22     -0.49136661409557
  23    -2.3778675610391e-05
  24    -0.00077447491168157
  25    0.0003282237759708
  26    0.00055800653682442
  27    -0.00028779219298614
  28    -0.0051736917565678
  29    -0.0018401696789713
  30    0.00070408487161405
  31    0.0077849101337022
  32      0.17209416465858
  33      0.15228559283098
  34     -0.18612710755123
  35     -0.16740445713281
  36    -0.0013970564160935
  37    -0.0039170122982508
  38    0.00012416664798403
  39    0.0015650554619255
  40    -0.00098366229551853
  41    -0.00084483615133867
  42    0.00054835487864546
  43    0.00097592895574643
 Sym= A
 Ene=              19
 Spin= Alpha
 Occup=    0.00000
   1    0.0026716850392285
   2    -0.0033474642555759
   3    -0.028796277837311
   4    -0.023520424020938
   5    -0.014970676407808
   6    -0.00089983263822127
   7    -0.034047413432545
   8     -0.02602012967531
   9    -0.0010424453501577
  10    -0.0098677622443147
  11      -0.0234250045137
  12    -0.0055845815380599
  13    -0.015538037008068
  14    0.0007371894534152
  15    0.0014903588890822
  16      0.02008191959384
  17    -0.0082345632613047
  18    0.0014724048356693
  19    -0.00068118582165737
  20    -0.015477365429859
  21    0.0060363232837993
  22    -0.00033843929348038
  23    -0.0016987647070284
  24     -0.15176377397225
  25     -0.39160600896484
  26    -0.011987521260268
  27     -0.15760049079781
  28      0.21749800905137
  29    -0.019073063395994
  30     -0.19539080481098
  31      0.26872876024671
  32    -0.0021978873213885
  33    -0.0014555650283631
  34    -0.011241073199647
  35     -0.04559483476342
  36    -0.0044722728185697
  37    -0.0063445043583626
  38    -0.025918683200494
  39    -0.051072518942156
  40    -0.026764715944686
  41    -0.052770957082962
  42      0.53258120895398
  43       1.1589878031589
 Sym= A
 Ene=              20
 Spin= Alpha
 Occup=    0.00000
   1    0.0070835391546201
   2     0.018460371860353
   3    -0.078792389824157
   4     0.019498012154621
   5    -0.012617687583259
   6    0.0038967649278874
   7     0.088070296273047
   8    -0.074994996738906
   9    0.0011417588871977
  10    -0.009514664461255
  11    -0.064300014470458
  12    0.0023309518105215
  13    -0.037623215314879
  14    0.0039985384579029
  15    -0.015188371271788
  16     -0.80967185340022
  17      0.01177401504604
  18    -0.076300861499153
  19      0.10086482463222
  20     0.053603632902719
  21     -0.40933138718945
  22      0.55763524534493