[Molden Format]
made by pyscf v[1.6]
[Atoms] (AU)
H   1   1     2.79679466435629     0.00000000000000     0.00000000000000
H   2   1     4.19519199653444     0.00000000000000     0.00000000000000
GHOST-H   3   0     1.39839733217815     0.00000000000000     0.00000000000000
GHOST-H   4   0     0.00000000000000     0.00000000000000     0.00000000000000
[GTO]
1 0
 s    2 1.00
              5.447178     0.1562849806701
              0.824547    0.90469088810453
 s    1 1.00
              0.183192                   1

2 0
 s    2 1.00
              5.447178     0.1562849806701
              0.824547    0.90469088810453
 s    1 1.00
              0.183192                   1

3 0
 s    2 1.00
              5.447178     0.1562849806701
              0.824547    0.90469088810453
 s    1 1.00
              0.183192                   1

4 0
 s    2 1.00
              5.447178     0.1562849806701
              0.824547    0.90469088810453
 s    1 1.00
              0.183192                   1

[5d]
[9g]


[MO]
 Sym= A
 Ene=   -0.5295020251
 Spin= Alpha
 Occup=    1.00000
   1      0.32412598692506
   2      0.34402141700763
   3      0.26604193286124
   4      0.25610674291129
   5      0.13557909939329
   6    -0.019016114265337
   7    -0.015809487018142
   8      -0.1086286985369
 Sym= A
 Ene=   0.09370810133
 Spin= Alpha
 Occup=    0.00000
   1      0.20376277243696
   2      0.75637970177932
   3      -0.1609033969634
   4       -1.138476581938
   5        0.203762776942
   6      0.75637974508623
   7     -0.16090339758764
   8      -1.1384766003029
 Sym= A
 Ene=     0.360723955
 Spin= Alpha
 Occup=    0.00000
   1     -0.18048208887497
   2      -4.8980992313883
   3     -0.14463757076712
   4       2.5303727497148
   5      0.18048208680364
   6       4.8980992253346
   7      0.14463757455883
   8      -2.5303727427338
 Sym= A
 Ene=    0.4113166586
 Spin= Alpha
 Occup=    0.00000
   1    -0.0075079640692435
   2      0.16953872760524
   3      0.13231191879701
   4      0.22914581033315
   5     -0.29450353590185
   6     -0.38305678742869
   7     -0.29670661492931
   8     -0.32603416020361
 Sym= A
 Ene=    0.7083981068
 Spin= Alpha
 Occup=    0.00000
   1      0.54362213462681
   2     -0.67461018678223
   3      0.52987159025285
   4    -0.069370932804633
   5      0.54362213631877
   6     -0.67461024488149
   7       0.5298716006088
   8    -0.069370918679671
 Sym= A
 Ene=     1.020123426
 Spin= Alpha
 Occup=    0.00000
   1      0.63825499663704
   2      -1.1141248178366
   3     -0.75528202078193
   4       1.3308634821883
   5      0.63825489220235
   6      -1.1141233892165
   7     -0.75528230062985
   8       1.3308631769847
 Sym= A
 Ene=     1.033513263
 Spin= Alpha
 Occup=    0.00000
   1       0.3613150127955
   2      -4.3240569737141
   3      0.79890346079036
   4      0.95126117208556
   5     -0.36131522354984
   6        4.324057343098
   7     -0.79890319682141
   8     -0.95126162356294
 Sym= A
 Ene=     1.515915994
 Spin= Alpha
 Occup=    0.00000
   1      -1.1275819542028
   2       3.3078442215118
   3       0.5419372660082
   4      -1.4346135998237
   5       1.1275819445184
   6      -3.3078442071172
   7     -0.54193725257897
   8       1.4346135814522
