[Molden Format]
made by pyscf v[1.6]
[Atoms] (AU)
H   1   1     1.39839733217815     0.00000000000000     0.00000000000000
H   2   1     0.00000000000000     0.00000000000000     0.00000000000000
GHOST-H   3   0     2.79679466435629     0.00000000000000     0.00000000000000
GHOST-H   4   0     4.19519199653444     0.00000000000000     0.00000000000000
[GTO]
1 0
 s    2 1.00
              5.447178     0.1562849806701
              0.824547    0.90469088810453
 s    1 1.00
              0.183192                   1

2 0
 s    2 1.00
              5.447178     0.1562849806701
              0.824547    0.90469088810453
 s    1 1.00
              0.183192                   1

3 0
 s    2 1.00
              5.447178     0.1562849806701
              0.824547    0.90469088810453
 s    1 1.00
              0.183192                   1

4 0
 s    2 1.00
              5.447178     0.1562849806701
              0.824547    0.90469088810453
 s    1 1.00
              0.183192                   1

[5d]
[9g]


[MO]
 Sym= A
 Ene=   -0.4113166586
 Spin= Alpha
 Occup=    1.00000
   1     -0.29450353590185
   2     -0.38305678742874
   3     -0.29670661492932
   4     -0.32603416020359
   5    -0.0075079640692414
   6      0.16953872760529
   7      0.13231191879701
   8      0.22914581033312
 Sym= A
 Ene=   0.09370810133
 Spin= Alpha
 Occup=    0.00000
   1     -0.20376277717958
   2      -0.7563797450529
   3      0.16090339761534
   4       1.1384766004933
   5     -0.20376277300494
   6     -0.75637970238218
   7       0.1609033964972
   8       1.1384765814893
 Sym= A
 Ene=     0.360723955
 Spin= Alpha
 Occup=    0.00000
   1     -0.18048208699599
   2      -4.8980992253075
   3     -0.14463757453641
   4       2.5303727428879
   5      0.18048208841517
   6       4.8980992309002
   7      0.14463757038972
   8      -2.5303727500781
 Sym= A
 Ene=    0.5295020251
 Spin= Alpha
 Occup=    0.00000
   1      0.13557909902091
   2    -0.019016120987603
   3    -0.015809486411805
   4     -0.10862869379913
   5      0.32412598779984
   6      0.34402141962443
   7      0.26604193424017
   8      0.25610674176674
 Sym= A
 Ene=    0.7083981068
 Spin= Alpha
 Occup=    0.00000
   1     -0.54362213615345
   2       0.6746102448583
   3     -0.52987160062807
   4     0.069370918547218
   5      -0.5436221342316
   6      0.67461018720171
   7     -0.52987158992847
   8     0.069370933116909
 Sym= A
 Ene=     1.020123426
 Spin= Alpha
 Occup=    0.00000
   1      0.63825489221391
   2      -1.1141233892178
   3     -0.75528230063127
   4       1.3308631769754
   5      0.63825499666479
   6      -1.1141248178076
   7     -0.75528202075911
   8       1.3308634822103
 Sym= A
 Ene=     1.033513263
 Spin= Alpha
 Occup=    0.00000
   1     -0.36131522359975
   2       4.3240573431051
   3     -0.79890319681553
   4      -0.9512616235231
   5       0.3613150126762
   6      -4.3240569738406
   7      0.79890346069256
   8      0.95126117199125
 Sym= A
 Ene=     1.515915994
 Spin= Alpha
 Occup=    0.00000
   1       1.1275819445467
   2      -3.3078442071212
   3     -0.54193725258225
   4       1.4346135814296
   5      -1.1275819541353
   6       3.3078442215835
   7      0.54193726606355
   8      -1.4346135997705
