 &FCI NORB=   9,NELEC= 2,MS2=0,
  ORBSYM=1,1,1,1,1,1,1,1,1,
  ISYM=1,
 &END
 1.650352444132361    1    1    1    1
 -0.1299715921517104    1    1    2    1
 0.3360972616484958    1    1    2    2
 -1.136400017478619e-17    1    1    3    1
 2.693210492454464e-18    1    1    3    2
 0.2622589986648902    1    1    3    3
 -9.214849494851525e-18    1    1    4    1
 1.006892639345516e-17    1    1    4    2
 1.110223024625156e-16    1    1    4    3
 0.2622589986648902    1    1    4    4
 -0.03054901548938941    1    1    5    1
 0.02993565601826102    1    1    5    2
 8.117437881104557e-17    1    1    5    3
 -1.768822451393451e-17    1    1    5    4
 0.3234939115952051    1    1    5    5
 3.949421795877503e-17    1    1    6    1
 -6.581491976826467e-17    1    1    6    2
 0.05979031897822294    1    1    6    3
 0.09704835249458869    1    1    6    4
 3.92302878988635e-17    1    1    6    5
 0.3017703852964299    1    1    6    6
 1.498600375968264e-17    1    1    7    1
 -2.406664051029353e-17    1    1    7    2
 0.09704835249458867    1    1    7    3
 -0.0597903189782229    1    1    7    4
 -2.391165926477366e-18    1    1    7    5
 -4.727121472036799e-17    1    1    7    6
 0.30177038529643    1    1    7    7
 -0.04453509225157089    1    1    8    1
 0.06986547704598929    1    1    8    2
 1.480907630378766e-17    1    1    8    3
 7.065562059382136e-17    1    1    8    4
 -0.09104996066419083    1    1    8    5
 3.742516158381097e-17    1    1    8    6
 2.963776661100014e-17    1    1    8    7
 0.268982827857868    1    1    8    8
 0.05900290957566139    1    1    9    1
 -0.08123621767062572    1    1    9    2
 -4.101276212067967e-17    1    1    9    3
 8.256321328995179e-19    1    1    9    4
 -0.05117784008233058    1    1    9    5
 1.670233055633539e-17    1    1    9    6
 2.154174891289139e-18    1    1    9    7
 -0.01346003223351924    1    1    9    8
 0.221488156782561    1    1    9    9
 -0.1299715921517105    2    1    1    1
 0.01610822347287806    2    1    2    1
 -0.003306002195369304    2    1    2    2
 1.184254673998166e-18    2    1    3    1
 -5.200921125425302e-19    2    1    3    2
 -0.0008648233778125567    2    1    3    3
 1.0984005646137e-18    2    1    4    1
 -2.884602200894448e-19    2    1    4    2
 -5.149960319306146e-19    2    1    4    3
 -0.0008648233778125561    2    1    4    4
 0.003484768471102618    2    1    5    1
 -0.001022127337919485    2    1    5    2
 -1.151300778592255e-18    2    1    5    3
 -0.0021151283118911    2    1    5    5
 -4.830663168479494e-18    2    1    6    1
 8.31636544210338e-19    2    1    6    2
 -0.0009105088494843151    2    1    6    3
 -0.00147788781334952    2    1    6    4
 -9.035258744087747e-19    2    1    6    5
 -0.003585248491290674    2    1    6    6
 -1.849724276839491e-18    2    1    7    1
 2.913678138568645e-19    2    1    7    2
 -0.00147788781334952    2    1    7    3
 0.0009105088494843141    2    1    7    4
 -1.047878904964394e-19    2    1    7    5
 6.471331717022857e-19    2    1    7    6
 -0.003585248491290674    2    1    7    7
 0.005324082584880363    2    1    8    1
 -0.0009719088337467939    2    1    8    2
 -4.917891704652484e-20    2    1    8    3
 -1.000280038906879e-18    2    1    8    4
 0.00172364831350349    2    1    8    5
 -1.032864550037529e-18    2    1    8    6
 -6.257827489995573e-19    2    1    8    7
 -0.002564627263898677    2    1    8    8
 -0.006513587414321923    2    1    9    1
 0.001364775622802808    2    1    9    2
 8.149216978616123e-19    2    1    9    3
 8.326336112047329e-20    2    1    9    4
 0.001227011799997158    2    1    9    5
 3.045639838937244e-19    2    1    9    6
 2.161269820936979e-19    2    1    9    7
 -0.0003837460653373042    2    1    9    8
 -0.001290793538699091    2    1    9    9
 0.3360972616484958    2    2    1    1
 -0.003306002195369295    2    2    2    1
 0.2470172722270728    2    2    2    2
 -1.488609776550597e-18    2    2    3    1
 -9.963137499735536e-18    2    2    3    2
 0.2154604303896757    2    2    3    3
 -4.507361664540596e-19    2    2    4    1
 1.023815200341628e-18    2    2    4    2
 6.245004513516504e-17    2    2    4    3
 0.2154604303896757    2    2    4    4
 -0.002187490691549884    2    2    5    1
 -8.743074587094779e-05    2    2    5    2
 4.376382795940351e-17    2    2    5    3
 -1.597866933076262e-17    2    2    5    4
 0.2381517707806762    2    2    5    5
 -6.006581937206015e-19    2    2    6    1
 -3.353644028009825e-17    2    2    6    2
 0.02770622289065273    2    2    6    3
 0.04497121492803961    2    2    6    4
 1.337917441626398e-17    2    2    6    5
 0.2007690484586679    2    2    6    6
 -1.443285091900904e-19    2    2    7    1
 -1.164714482245067e-17    2    2    7    2
 0.04497121492803958    2    2    7    3
 -0.02770622289065271    2    2    7    4
 -4.228550103164125e-18    2    2    7    5
 -2.642742795433416e-17    2    2    7    6
 0.2007690484586679    2    2    7    7
 0.0002096304227037971    2    2    8    1
 0.03377725063395546    2    2    8    2
 5.305972071485795e-18    2    2    8    3
 3.724789005081255e-17    2    2    8    4
 -0.03608989108251113    2    2    8    5
 7.208970054915509e-18    2    2    8    6
 1.132515706355726e-17    2    2    8    7
 0.1976693247257525    2    2    8    8
 0.002134585346199415    2    2    9    1
 -0.03491472529975082    2    2    9    2
 -1.969111824417506e-17    2    2    9    3
 2.51401756379515e-18    2    2    9    4
 -0.01754933176673951    2    2    9    5
 1.883061512997432e-17    2    2    9    6
 4.841521014472335e-18    2    2    9    7
 -0.01664482644710921    2    2    9    8
 0.1725408951561778    2    2    9    9
 -1.136400017478618e-17    3    1    1    1
 1.184254673998165e-18    3    1    2    1
 -1.488609776550599e-18    3    1    2    2
 0.002408033848311633    3    1    3    1
 0.004474905318647168    3    1    3    2
 5.707483720515383e-19    3    1    3    3
 1.760261924708454e-18    3    1    4    1
 2.102311665010825e-18    3    1    4    2
 2.851465780913035e-19    3    1    4    3
 -8.964184161516841e-20    3    1    4    4
 3.208899973364956e-18    3    1    5    1
 3.22834661649291e-18    3    1    5    2
 0.0008671331872518267    3    1    5    3
 5.149960319306147e-19    3    1    5    4
 1.30969443408304e-18    3    1    5    5
 0.002640774197770604    3    1    6    1
 0.001978992860866034    3    1    6    2
 -8.030419145160539e-19    3    1    6    3
 1.335026022128086e-20    3    1    6    4
 0.0005792121394600521    3    1    6    5
 -2.100292867454027e-18    3    1    6    6
 0.004286359223090955    3    1    7    1
 0.0032121922081659    3    1    7    2
 -1.208525072479638e-19    3    1    7    3
 3.465184647713304e-19    3    1    7    4
 0.000940145241572262    3    1    7    5
 -1.753923001486707e-18    3    1    7    6
 -1.43960131568072e-18    3    1    7    7
 1.924348817508223e-20    3    1    8    1
 3.457635387662112e-19    3    1    8    2
 0.001008433578101269    3    1    8    3
 9.351243737687478e-19    3    1    8    4
 1.27241535622012e-18    3    1    8    5
 0.0009975254341813716    3    1    8    6
 0.001619128340727054    3    1    8    7
 -2.523078437993917e-19    3    1    8    8
 -2.280286416478281e-18    3    1    9    1
 -3.679937883931176e-19    3    1    9    2
 -0.001038896862260572    3    1    9    3
 -1.301042606982605e-18    3    1    9    4
 -1.446391183300466e-18    3    1    9    5
 -0.001489753115970688    3    1    9    6
 -0.002418085201741338    3    1    9    7
 -4.996034578077182e-19    3    1    9    8
 1.767827064023137e-18    3    1    9    9
 2.693210492454455e-18    3    2    1    1
 -5.200921125425278e-19    3    2    2    1
 -9.963137499735541e-18    3    2    2    2
 0.004474905318647168    3    2    3    1
 0.0445966928762437    3    2    3    2
 9.288690197072305e-19    3    2    3    3
 2.394874828748166e-18    3    2    4    1
 1.399715483790366e-17    3    2    4    2
 1.775200992963591e-18    3    2    4    3
 -1.576719408512697e-18    3    2    4    4
 2.504438307515122e-18    3    2    5    1
 9.506808498578496e-18    3    2    5    2
 0.003992042909816565    3    2    5    3
 1.843143693225358e-18    3    2    5    4
 3.599035994513619e-18    3    2    5    5
 0.004188363470096686    3    2    6    1
 0.009988751005343882    3    2    6    2
 -4.101274099309058e-19    3    2    6    3
 1.88099059675519e-18    3    2    6    4
 0.003879244444826322    3    2    6    5
 -1.655691637764068e-17    3    2    6    6
 0.006798320888193441    3    2    7    1
 0.01621319044811193    3    2    7    2
 2.592455968181222e-18    3    2    7    3
 1.103798941655841e-18    3    2    7    4
 0.006296575912754374    3    2    7    5
 -1.564651797993661e-17    3    2    7    6
 -1.084679493307097e-17    3    2    7    7
 1.913728041227822e-18    3    2    8    1
 1.081493995961458e-17    3    2    8    2
 0.001650026454010458    3    2    8    3
 -4.336808689942022e-19    3    2    8    4
 5.683908533775704e-18    3    2    8    5
 0.008841075462296236    3    2    8    6
 0.0143503467209916    3    2    8    7
 9.044844681463323e-18    3    2    8    8
 -1.532163207146063e-18    3    2    9    1
 -1.430805912995702e-18    3    2    9    2
 0.00458044274429887    3    2    9    3
 4.77048955893622e-18    3    2    9    4
 -6.677346943368493e-18    3    2    9    5
 -0.01334302345984863    3    2    9    6
 -0.02165766074180999    3    2    9    7
 -1.000743716841819e-17    3    2    9    8
 9.649212459099005e-18    3    2    9    9
 0.2622589986648902    3    3    1    1
 -0.0008648233778125625    3    3    2    1
 0.2154604303896757    3    3    2    2
 5.70748372051538e-19    3    3    3    1
 9.288690197072271e-19    3    3    3    2
 0.213026795973733    3    3    3    3
 -6.15109746125972e-20    3    3    4    1
 3.483732681518821e-18    3    3    4    2
 6.245004513516504e-17    3    3    4    3
 0.1888282534925748    3    3    4    4
 -0.0002356779716353078    3    3    5    1
 0.00911241537533326    3    3    5    2
 3.922058877146213e-17    3    3    5    3
 -1.344191273152385e-17    3    3    5    4
 0.2064520065964232    3    3    5    5
 9.595341679728056e-19    3    3    6    1
 -2.045115450763117e-17    3    3    6    2
 0.02099108323983492    3    3    6    3
 0.03089439253467923    3    3    6    4
 1.20419152894551e-17    3    3    6    5
 0.1793863793182419    3    3    6    6
 1.169149525667127e-18    3    3    7    1
 -5.049209776964081e-18    3    3    7    2
 0.0340715701189809    3    3    7    3
 -0.01903366246624228    3    3    7    4
 8.671915854830479e-19    3    3    7    5
 0.007428307423306261    3    3    7    6
 0.1868671082011749    3    3    7    7
 -0.0003953880619318434    3    3    8    1
 0.02217495891071994    3    3    8    2
 5.238541298571276e-18    3    3    8    3
 2.754810917983151e-17    3    3    8    4
 -0.02401343541544291    3    3    8    5
 1.374249377901415e-17    3    3    8    6
 1.69947358572825e-17    3    3    8    7
 0.1690907096138417    3    3    8    8
 0.0006023801063669261    3    3    9    1
 -0.02231164240123237    3    3    9    2
 -1.674274258858503e-17    3    3    9    3
 3.749114772519715e-18    3    3    9    4
 -0.01220653640999196    3    3    9    5
 9.432731977198102e-18    3    3    9    6
 -7.760617746260911e-19    3    3    9    7
 -0.01118641418278916    3    3    9    8
 0.1664155159650377    3    3    9    9
 -9.214849494851522e-18    4    1    1    1
 1.0984005646137e-18    4    1    2    1
 -4.507361664540598e-19    4    1    2    2
 1.518127504971391e-18    4    1    3    1
 2.368258716707619e-18    4    1    3    2
 -6.151097461259701e-20    4    1    3    3
 0.002408033848311631    4    1    4    1
 0.004474905318647166    4    1    4    2
 3.301951068333536e-19    4    1    4    3
 5.08782181570009e-19    4    1    4    4
 -1.454158402909712e-20    4    1    5    1
 -6.738665657423611e-19    4    1    5    2
 5.963111948670274e-19    4    1    5    3
 0.0008671331872518262    4    1    5    4
 -3.540034462632068e-19    4    1    5    5
 0.004286359223090955    4    1    6    1
 0.0032121922081659    4    1    6    2
 2.747548993496826e-19    4    1    6    3
 -7.787240154942418e-19    4    1    6    4
 0.0009401452415722617    4    1    6    5
 -3.108041411438973e-18    4    1    6    6
 -0.0026407741977706    4    1    7    1
 -0.001978992860866033    4    1    7    2
 -3.222005657495193e-19    4    1    7    3
 -4.089576668189285e-19    4    1    7    4
 -0.0005792121394600511    4    1    7    5
 3.303457758866509e-19    4    1    7    6
 3.998045915344413e-19    4    1    7    7
 3.059202921826128e-18    4    1    8    1
 1.83777139000726e-18    4    1    8    2
 1.097754699641573e-18    4    1    8    3
 0.001008433578101268    4    1    8    4
 6.050078387760046e-19    4    1    8    5
 0.001619128340727056    4    1    8    6
 -0.0009975254341813703    4    1    8    7
 1.773327185553939e-18    4    1    8    8
 -3.802111008318262e-19    4    1    9    1
 1.763561908611994e-19    4    1    9    2
 -1.097754699641573e-18    4    1    9    3
 -0.001038896862260572    4    1    9    4
 1.724468809727738e-19    4    1    9    5
 -0.002418085201741341    4    1    9    6
 0.001489753115970687    4    1    9    7
 -1.481045851763254e-18    4    1    9    8
 -1.532098474099003e-19    4    1    9    9
 1.006892639345515e-17    4    2    1    1
 -2.884602200894441e-19    4    2    2    1
 1.02381520034163e-18    4    2    2    2
 1.836252991984476e-18    4    2    3    1
 1.399376569754702e-17    4    2    3    2
 3.48373268151882e-18    4    2    3    3
 0.004474905318647165    4    2    4    1
 0.04459669287624368    4    2    4    2
 1.252794214109965e-18    4    2    4    3
 7.034134667446e-18    4    2    4    4
 -2.206276997505669e-19    4    2    5    1
 -3.186808244223387e-18    4    2    5    2
 1.084202172485497e-19    4    2    5    3
 0.003992042909816564    4    2    5    4
 4.329618785233346e-18    4    2    5    5
 0.006798320888193441    4    2    6    1
 0.01621319044811195    4    2    6    2
 3.153172462415106e-18    4    2    6    3
 1.406825146814063e-18    4    2    6    4
 0.006296575912754371    4    2    6    5
 -2.173486596951565e-17    4    2    6    6
 -0.004188363470096683    4    2    7    1
 -0.009988751005343889    4    2    7    2
 7.131536150891265e-19    4    2    7    3
 -2.441707090989071e-18    4    2    7    4
 -0.003879244444826322    4    2    7    5
 2.855060722284856e-18    4    2    7    6
 9.558169990357556e-18    4    2    7    7
 3.795071305173003e-18    4    2    8    1
 1.07163690430639e-17    4    2    8    2
 -6.505213034913023e-19    4    2    8    3
 0.001650026454010454    4    2    8    4
 2.253281742384609e-18    4    2    8    5
 0.01435034672099159    4    2    8    6
 -0.008841075462296224    4    2    8    7
 1.847897281802526e-17    4    2    8    8
 1.145068760768153e-19    4    2    9    1
 -1.376913117471372e-18    4    2    9    2
 2.168404344971008e-18    4    2    9    3
 0.004580442744298875    4    2    9    4
 -2.381047449313169e-18    4    2    9    5
 -0.02165766074180997    4    2    9    6
 0.01334302345984861    4    2    9    7
 -1.249526157253354e-17    4    2    9    8
 3.628286545396079e-18    4    2    9    9
 1.040529486531564e-16    4    3    1    1
 -9.117310871998059e-19    4    3    2    1
 6.694944741503202e-17    4    3    2    2
 2.851465780913036e-19    4    3    3    1
 1.775200992963592e-18    4    3    3    2
 6.288372600415926e-17    4    3    3    3
 3.301951068333536e-19    4    3    4    1
 1.252794214109967e-18    4    3    4    2
 0.01209927124057904    4    3    4    3
 5.898059818321144e-17    4    3    4    4
 -3.891312133082903e-19    4    3    5    1
 5.04190513623089e-18    4    3    5    2
 -5.931833697199374e-19    4    3    5    3
 1.724420364647652e-18    4    3    5    4
 6.486402527617394e-17    4    3    5    5
 7.759720965863253e-19    4    3    6    1
 1.879236586097716e-18    4    3    6    2
 0.00158858879215083    4    3    6    3
 0.000978710386796379    4    3    6    4
 2.579227747505793e-18    4    3    6    5
 0.007428307423306363    4    3    6    6
 1.228667323054118e-19    4    3    7    1
 4.227272744139229e-19    4    3    7    2
 -0.000978710386796325    4    3    7    3
 0.001588588792150792    4    3    7    4
 -9.05771226015599e-19    4    3    7    5
 0.003740364441466502    4    3    7    6
 -0.007428307423306276    4    3    7    7
 -8.106180298719127e-19    4    3    8    1
 1.202894170722167e-17    4    3    8    2
 1.225490493020153e-18    4    3    8    3
 1.866379964076834e-18    4    3    8    4
 -1.407529521803793e-18    4    3    8    5
 5.785460144649627e-18    4    3    8    6
 1.746902139581341e-18    4    3    8    7
 7.179508247248569e-17    4    3    8    8
 1.363141084425374e-18    4    3    9    1
 -9.533524719325072e-18    4    3    9    2
 3.856740433435649e-19    4    3    9    3
 1.629987133555123e-19    4    3    9    4
 -3.265844614812694e-17    4    3    9    5
 -2.820972137962787e-18    4    3    9    6
 -2.548397511647465e-20    4    3    9    7
 -8.115897587215394e-17    4    3    9    8
 1.703390936758401e-16    4    3    9    9
 0.2622589986648902    4    4    1    1
 -0.000864823377812559    4    4    2    1
 0.2154604303896757    4    4    2    2
 -8.964184161516802e-20    4    4    3    1
 -1.576719408512691e-18    4    4    3    2
 0.1888282534925748    4    4    3    3
 5.087821815700092e-19    4    4    4    1
 7.034134667446003e-18    4    4    4    2
 8.326672684688673e-17    4    4    4    3
 0.2130267959737329    4    4    4    4
 -0.0002356779716353075    4    4    5    1
 0.00911241537533327    4    4    5    2
 3.577174804216684e-17    4    4    5    3
 -1.462827947096375e-17    4    4    5    4
 0.2064520065964232    4    4    5    5
 1.205267632583628e-18    4    4    6    1
 -1.960569995880332e-17    4    4    6    2
 0.01903366246624232    4    4    6    3
 0.03407157011898095    4    4    6    4
 1.02303728374239e-17    4    4    6    5
 0.1868671082011747    4    4    6    6
 -3.827946675055186e-19    4    4    7    1
 -8.807682949159536e-18    4    4    7    2
 0.03089439253467925    4    4    7    3
 -0.02099108323983494    4    4    7    4
 -4.291263909528544e-18    4    4    7    5
 -0.00742830742330631    4    4    7    6
 0.179386379318242    4    4    7    7
 -0.0003953880619318431    4    4    8    1
 0.02217495891071995    4    4    8    2
 1.505781370417707e-18    4    4    8    3
 2.999909016587184e-17    4    4    8    4
 -0.0240134354154429    4    4    8    5
 1.72362980581769e-17    4    4    8    6
 5.423815567983267e-18    4    4    8    7
 0.1690907096138417    4    4    8    8
 0.000602380106366939    4    4    9    1
 -0.02231164240123239    4    4    9    2
 -1.706874001529608e-17    4    4    9    3
 4.520462859206872e-18    4    4    9    4
 -0.01220653640999199    4    4    9    5
 9.381764026965126e-18    4    4    9    6
 4.865882501299634e-18    4    4    9    7
 -0.01118641418278919    4    4    9    8
 0.1664155159650378    4    4    9    9
 -0.03054901548938943    5    1    1    1
 0.003484768471102617    5    1    2    1
 -0.002187490691549891    5    1    2    2
 3.208899973364954e-18    5    1    3    1
 2.504438307515121e-18    5    1    3    2
 -0.000235677971635309    5    1    3    3
 -1.454158402909744e-20    5    1    4    1
 -2.206276997505664e-19    5    1    4    2
 -1.389134033497053e-19    5    1    4    3
 -0.0002356779716353089    5    1    4    4
 0.005978164585986371    5    1    5    1
 0.00687419964346574    5    1    5    2
 9.580477927188383e-19    5    1    5    3
 4.377091782231769e-19    5    1    5    4
 0.00250638195391351    5    1    5    5
 2.343041707407747e-18    5    1    6    1
 2.241012151640903e-18    5    1    6    2
 -0.000241576374160346    5    1    6    3
 -0.0003921134644291993    5    1    6    4
 -1.407345535831256e-18    5    1    6    5
 -0.000953162546704192    5    1    6    6
 1.630648425071508e-19    5    1    7    1
 3.40003722691888e-19    5    1    7    2
 -0.0003921134644291993    5    1    7    3
 0.0002415763741603458    5    1    7    4
 -5.779960746903347e-19    5    1    7    5
 1.694065894508603e-19    5    1    7    6
 -0.000953162546704192    5    1    7    7
 -0.004742841687307151    5    1    8    1
 -0.004114569849015756    5    1    8    2
 6.241230958558469e-19    5    1    8    3
 -6.829852639673977e-19    5    1    8    4
 0.001273694803012859    5    1    8    5
 2.780598516062985e-18    5    1    8    6
 7.494620916618903e-19    5    1    8    7
 -0.004954279496470188    5    1    8    8
 -0.003796309900983414    5    1    9    1
 -0.0002999603984725415    5    1    9    2
 -1.397692146591444e-18    5    1    9    3
 1.126695432004652e-19    5    1    9    4
 -0.002403138453124177    5    1    9    5
 -1.116789151460445e-18    5    1    9    6
 0.002405992364995443    5    1    9    8
 0.002272007487181035    5    1    9    9
 0.02993565601826098    5    2    1    1
 -0.001022127337919485    5    2    2    1
 -8.743074587094172e-05    5    2    2    2
 3.228346616492907e-18    5    2    3    1
 9.506808498578499e-18    5    2    3    2
 0.009112415375333258    5    2    3    3
 -6.738665657423617e-19    5    2    4    1
 -3.186808244223388e-18    5    2    4    2
 4.119968255444916e-18    5    2    4    3
 0.009112415375333255    5    2    4    4
 0.006874199643465741    5    2    5    1
 0.05045196646622151    5    2    5    2
 8.856547815606663e-18    5    2    5    3
 1.3225080576557e-18    5    2    5    4
 0.02529178864128278    5    2    5    5
 3.487660787265476e-18    5    2    6    1
 -8.440317503604216e-19    5    2    6    2
 0.003593855948581045    5    2    6    3
 0.005833349024943334    5    2    6    4
 -2.336300674615004e-18    5    2    6    5
 0.009683264240715314    5    2    6    6
 4.317638760332953e-19    5    2    7    1
 -2.357060495845365e-18    5    2    7    2
 0.005833349024943332    5    2    7    3
 -0.003593855948581043    5    2    7    4
 -1.976935747724706e-18    5    2    7    5
 -2.195509399283149e-18    5    2    7    6
 0.009683264240715316    5    2    7    7
 -0.007501171785339386    5    2    8    1
 -0.007775666244624876    5    2    8    2
 6.024856865513869e-18    5    2    8    3
 1.475953329955378e-18    5    2    8    4
 -0.004401324562808331    5    2    8    5
 2.107448933737054e-17    5    2    8    6
 7.241511119307091e-18    5    2    8    7
 -0.02157090402427636    5    2    8    8
 -0.002214807185063258    5    2    9    1
 -0.00445585114621994    5    2    9    2
 -1.095589329933376e-17    5    2    9    3
 1.780094757762064e-19    5    2    9    4
 -0.008420937412396086    5    2    9    5
 -3.822811135202737e-18    5    2    9    6
 1.151882052225286e-18    5    2    9    7
 0.0157250302709844    5    2    9    8
 0.02873243917204884    5    2    9    9
 8.117437881104553e-17    5    3    1    1
 -1.151300778592248e-18    5    3    2    1
 4.376382795940349e-17    5    3    2    2
 0.0008671331872518266    5    3    3    1
 0.003992042909816565    5    3    3    2
 3.922058877146217e-17    5    3    3    3
 4.945528565321607e-19    5    3    4    1
 1.975727395791388e-18    5    3    4    2
 -5.931833697199354e-19    5    3    4    3
 3.577174804216685e-17    5    3    4    4
 9.580477927188435e-19    5    3    5    1
 8.85654781560666e-18    5    3    5    2
 0.01298742655612414    5    3    5    3
 3.469446951953622e-18    5    3    5    4
 5.056582300980818e-17    5    3    5    5
 0.0008219731177732435    5    3    6    1
 0.002132622553513926    5    3    6    2
 8.27466568473912e-18    5    3    6    3
 1.229412096630901e-17    5    3    6    4
 0.003015291716507083    5    3    6    5
 3.631687016946133e-17    5    3    6    6
 0.001334181490213964    5    3    7    1
 0.003461555463296856    5    3    7    2
 1.463726898761207e-17    5    3    7    3
 -7.600603473447025e-18    5    3    7    4
 0.004894255430953214    5    3    7    5
 6.077219656996662e-19    5    3    7    6
 3.45781955880789e-17    5    3    7    7
 -8.298131895351325e-19    5    3    8    1
 9.803924679951645e-18    5    3    8    2
 0.0003830791517134519    5    3    8    3
 9.215718466126792e-19    5    3    8    4
 -8.720774772457718e-18    5    3    8    5
 -0.002549867728024144    5    3    8    6
 -0.004138804848557405    5    3    8    7
 2.634409616222034e-17    5    3    8    8
 7.42401486168215e-20    5    3    9    1
 -1.161995364111406e-17    5    3    9    2
 0.000744688052609163    5    3    9    3
 1.084202172485523e-19    5    3    9    4
 -7.899499395450081e-18    5    3    9    5
 -0.00290476792930772    5    3    9    6
 -0.004714859307258546    5    3    9    7
 -1.942648497883769e-18    5    3    9    8
 3.292045093248337e-17    5    3    9    9
 -1.768822451393448e-17    5    4    1    1
 -1.597866933076265e-17    5    4    2    2
 5.262887156982475e-19    5    4    3    1
 2.154778664803991e-18    5    4    3    2
 -1.344191273152384e-17    5    4    3    3
 0.0008671331872518261    5    4    4    1
 0.003992042909816563    5    4    4    2
 1.724420364647651e-18    5    4    4    3
 -1.462827947096374e-17    5    4    4    4
 4.377091782231764e-19    5    4    5    1
 1.322508057655697e-18    5    4    5    2
 5.637851296924625e-18    5    4    5    3
 0.01298742655612414    5    4    5    4
 -1.544632685160396e-17    5    4    5    5
 0.001334181490213965    5    4    6    1
 0.003461555463296857    5    4    6    2
 1.816056950542933e-18    5    4    6    3
 -2.942331919245524e-18    5    4    6    4
 0.004894255430953218    5    4    6    5
 -1.078327848161049e-17    5    4    6    6
 -0.0008219731177732428    5    4    7    1
 -0.002132622553513926    5    4    7    2
 -3.616394130537594e-18    5    4    7    3
 5.270910707601522e-19    5    4    7    4
 -0.003015291716507084    5    4    7    5
 -8.693372906911674e-19    5    4    7    6
 -1.199872241300989e-17    5    4    7    7
 3.099078266531667e-19    5    4    8    1
 -4.303772720141822e-19    5    4    8    2
 -1.084202172485504e-18    5    4    8    3
 0.0003830791517134533    5    4    8    4
 4.059556595253172e-18    5    4    8    5
 -0.004138804848557408    5    4    8    6
 0.002549867728024138    5    4    8    7
 -1.792176838756016e-17    5    4    8    8
 -2.008353859213282e-19    5    4    9    1
 1.073021741285984e-18    5    4    9    2
 -9.757819552369534e-19    5    4    9    3
 0.0007446880526091628    5    4    9    4
 1.842344866148561e-19    5    4    9    5
 -0.004714859307258551    5    4    9    6
 0.002904767929307719    5    4    9    7
 -7.814125098899411e-19    5    4    9    8
 -1.077910095393142e-17    5    4    9    9
 0.3234939115952051    5    5    1    1
 -0.002115128311891107    5    5    2    1
 0.2381517707806762    5    5    2    2
 1.30969443408304e-18    5    5    3    1
 3.599035994513623e-18    5    5    3    2
 0.2064520065964233    5    5    3    3
 -3.540034462632063e-19    5    5    4    1
 4.329618785233346e-18    5    5    4    2
 6.245004513516504e-17    5    5    4    3
 0.2064520065964232    5    5    4    4
 0.002506381953913516    5    5    5    1
 0.02529178864128277    5    5    5    2
 5.056582300980812e-17    5    5    5    3
 -1.544632685160396e-17    5    5    5    4
 0.2631585584964798    5    5    5    5
 2.328545439778753e-18    5    5    6    1
 -2.692412578942424e-17    5    5    6    2
 0.0256467231533852    5    5    6    3
 0.0416283483924446    5    5    6    4
 1.23148607416998e-17    5    5    6    5
 0.1936023293768345    5    5    6    6
 5.384218874133833e-19    5    5    7    1
 -1.01412400929388e-17    5    5    7    2
 0.04162834839244457    5    5    7    3
 -0.02564672315338518    5    5    7    4
 -5.223944519301642e-18    5    5    7    5
 -2.580401170515499e-17    5    5    7    6
 0.1936023293768345    5    5    7    7
 -0.004012901639783146    5    5    8    1
 0.02388170658594652    5    5    8    2
 1.08795195221592e-18    5    5    8    3
 3.409733611711941e-17    5    5    8    4
 -0.03816594499946385    5    5    8    5
 1.365112375793283e-17    5    5    8    6
 1.400727607484907e-17    5    5    8    7
 0.1883335016273001    5    5    8    8
 0.0001709889480386807    5    5    9    1
 -0.03387455355271477    5    5    9    2
 -2.47319555999733e-17    5    5    9    3
 3.73500442625955e-18    5    5    9    4
 -0.02028928540371266    5    5    9    5
 9.464448213505544e-18    5    5    9    6
 3.30075424073428e-18    5    5    9    7
 -0.00325381768749991    5    5    9    8
 0.1863163370599035    5    5    9    9
 3.949421795877503e-17    6    1    1    1
 -4.830663168479491e-18    6    1    2    1
 -6.006581937205969e-19    6    1    2    2
 0.002640774197770604    6    1    3    1
 0.004188363470096685    6    1    3    2
 9.595341679728092e-19    6    1    3    3
 0.004286359223090956    6    1    4    1
 0.006798320888193442    6    1    4    2
 7.759720965863249e-19    6    1    4    3
 1.205267632583632e-18    6    1    4    4
 2.343041707407747e-18    6    1    5    1
 3.487660787265476e-18    6    1    5    2
 0.0008219731177732439    6    1    5    3
 0.001334181490213966    6    1    5    4
 2.328545439778756e-18    6    1    5    5
 0.01065081773818039    6    1    6    1
 0.006926030251938834    6    1    6    2
 1.868284866264858e-19    6    1    6    3
 -3.402109824811462e-19    6    1    6    4
 0.002009045282705617    6    1    6    5
 -4.683351078348094e-18    6    1    6    6
 -1.842798136432875e-18    6    1    7    1
 -1.864299807832238e-18    6    1    7    2
 2.462870689009566e-19    6    1    7    3
 -8.388678614810322e-19    6    1    7    4
 -4.808184001434803e-19    6    1    7    5
 -1.154169279164486e-18    6    1    7    6
 1.34673732591162e-18    6    1    7    7
 1.976105649626906e-18    6    1    8    1